 Entering Link 1 = C:\G03W\l1.exe PID=      3212.
  
 Copyright (c) 1988,1990,1992,1993,1995,1998,2003, Gaussian, Inc.
                  All Rights Reserved.
  
 This is the Gaussian(R) 03 program.  It is based on the
 the Gaussian(R) 98 system (copyright 1998, Gaussian, Inc.),
 the Gaussian(R) 94 system (copyright 1995, Gaussian, Inc.),
 the Gaussian 92(TM) system (copyright 1992, Gaussian, Inc.),
 the Gaussian 90(TM) system (copyright 1990, Gaussian, Inc.),
 the Gaussian 88(TM) system (copyright 1988, Gaussian, Inc.),
 the Gaussian 86(TM) system (copyright 1986, Carnegie Mellon
 University), and the Gaussian 82(TM) system (copyright 1983,
 Carnegie Mellon University). Gaussian is a federally registered
 trademark of Gaussian, Inc.
  
 This software contains proprietary and confidential information,
 including trade secrets, belonging to Gaussian, Inc.
  
 This software is provided under written license and may be
 used, copied, transmitted, or stored only in accord with that
 written license.
  
 The following legend is applicable only to US Government
 contracts under DFARS:
  
                    RESTRICTED RIGHTS LEGEND
  
 Use, duplication or disclosure by the US Government is subject
 to restrictions as set forth in subparagraph (c)(1)(ii) of the
 Rights in Technical Data and Computer Software clause at DFARS
 252.227-7013.
  
 Gaussian, Inc.
 Carnegie Office Park, Building 6, Pittsburgh, PA 15106 USA
  
 The following legend is applicable only to US Government
 contracts under FAR:
  
                    RESTRICTED RIGHTS LEGEND
  
 Use, reproduction and disclosure by the US Government is subject
 to restrictions as set forth in subparagraph (c) of the
 Commercial Computer Software - Restricted Rights clause at FAR
 52.227-19.
  
 Gaussian, Inc.
 Carnegie Office Park, Building 6, Pittsburgh, PA 15106 USA
  
  
 ---------------------------------------------------------------
 Warning -- This program may not be used in any manner that
 competes with the business of Gaussian, Inc. or will provide
 assistance to any competitor of Gaussian, Inc.  The licensee
 of this program is prohibited from giving any competitor of
 Gaussian, Inc. access to this program.  By using this program,
 the user acknowledges that Gaussian, Inc. is engaged in the
 business of creating and licensing software in the field of
 computational chemistry and represents and warrants to the
 licensee that it is not a competitor of Gaussian, Inc. and that
 it will not use this program in any manner prohibited above.
 ---------------------------------------------------------------
  

 Cite this work as:
 Gaussian 03, Revision B.05,
 M. J. Frisch, G. W. Trucks, H. B. Schlegel, G. E. Scuseria, 
 M. A. Robb, J. R. Cheeseman, J. A. Montgomery, Jr., T. Vreven, 
 K. N. Kudin, J. C. Burant, J. M. Millam, S. S. Iyengar, J. Tomasi, 
 V. Barone, B. Mennucci, M. Cossi, G. Scalmani, N. Rega, 
 G. A. Petersson, H. Nakatsuji, M. Hada, M. Ehara, K. Toyota, 
 R. Fukuda, J. Hasegawa, M. Ishida, T. Nakajima, Y. Honda, O. Kitao, 
 H. Nakai, M. Klene, X. Li, J. E. Knox, H. P. Hratchian, J. B. Cross, 
 C. Adamo, J. Jaramillo, R. Gomperts, R. E. Stratmann, O. Yazyev, 
 A. J. Austin, R. Cammi, C. Pomelli, J. W. Ochterski, P. Y. Ayala, 
 K. Morokuma, G. A. Voth, P. Salvador, J. J. Dannenberg, 
 V. G. Zakrzewski, S. Dapprich, A. D. Daniels, M. C. Strain, 
 O. Farkas, D. K. Malick, A. D. Rabuck, K. Raghavachari, 
 J. B. Foresman, J. V. Ortiz, Q. Cui, A. G. Baboul, S. Clifford, 
 J. Cioslowski, B. B. Stefanov, G. Liu, A. Liashenko, P. Piskorz, 
 I. Komaromi, R. L. Martin, D. J. Fox, T. Keith, M. A. Al-Laham, 
 C. Y. Peng, A. Nanayakkara, M. Challacombe, P. M. W. Gill, 
 B. Johnson, W. Chen, M. W. Wong, C. Gonzalez, and J. A. Pople, 
 Gaussian, Inc., Pittsburgh PA, 2003.
 
 **********************************************
 Gaussian 98:  x86-Win32-G03RevB.05  8-Nov-2003
                  14-Jun-2004 
 **********************************************
 %chk=aceticacid.chk
 %mem=6MW
 %nproc=1
 Will use up to    1 processors via shared memory.
 ---------------------------------------------------------
 # opt freq hf/3-21g geom=connectivity gfoldprint pop=full
 ---------------------------------------------------------
 1/18=20,38=1,57=2/1,3;
 2/9=110,17=6,18=5,40=1/2;
 3/5=5,11=9,16=1,24=1,25=1,30=1/1,2,3;
 4//1;
 5/5=2,38=5/2;
 6/7=3,28=1/1;
 7//1,2,3,16;
 1/18=20/3(1);
 99//99;
 2/9=110/2;
 3/5=5,11=9,16=1,25=1,30=1/1,2,3;
 4/5=5,16=3/1;
 5/5=2,38=5/2;
 7//1,2,3,16;
 1/18=20/3(-5);
 2/9=110/2;
 6/7=3,19=2,28=1/1;
 99/9=1/99;
 -----------
 Acetic Acid
 -----------
 Symbolic Z-matrix:
 Charge =  0 Multiplicity = 1
 C
 O                    1    B1
 O                    1    B2       2    A1
 C                    1    B3       2    A2       3    D1       0
 H                    4    B4       1    A3       2    D2       0
 H                    4    B5       1    A4       2    D3       0
 H                    4    B6       1    A5       2    D4       0
 H                    3    B7       1    A6       2    D5       0
       Variables:
  B1                    1.25847                  
  B2                    1.43                     
  B3                    1.54                     
  B4                    1.06992                  
  B5                    1.07003                  
  B6                    1.06997                  
  B7                    0.96001                  
  A1                  120.22325                  
  A2                  119.88775                  
  A3                  109.46891                  
  A4                  109.46689                  
  A5                  109.46796                  
  A6                  109.47686                  
  D1                  180.                       
  D2                  119.98864                  
  D3                 -120.01116                  
  D4                   -0.01136                  
  D5                    0.                       
 

 GradGradGradGradGradGradGradGradGradGradGradGradGradGradGradGradGradGrad
 Berny optimization.
 Initialization pass.
                           ----------------------------
                           !    Initial Parameters    !
                           ! (Angstroms and Degrees)  !
 --------------------------                            --------------------------
 ! Name  Definition              Value          Derivative Info.                !
 --------------------------------------------------------------------------------
 ! R1    R(1,2)                  1.2585         estimate D2E/DX2                !
 ! R2    R(1,3)                  1.43           estimate D2E/DX2                !
 ! R3    R(1,4)                  1.54           estimate D2E/DX2                !
 ! R4    R(3,8)                  0.96           estimate D2E/DX2                !
 ! R5    R(4,5)                  1.0699         estimate D2E/DX2                !
 ! R6    R(4,6)                  1.07           estimate D2E/DX2                !
 ! R7    R(4,7)                  1.07           estimate D2E/DX2                !
 ! A1    A(2,1,3)              120.2232         estimate D2E/DX2                !
 ! A2    A(2,1,4)              119.8878         estimate D2E/DX2                !
 ! A3    A(3,1,4)              119.889          estimate D2E/DX2                !
 ! A4    A(1,3,8)              109.4769         estimate D2E/DX2                !
 ! A5    A(1,4,5)              109.4689         estimate D2E/DX2                !
 ! A6    A(1,4,6)              109.4669         estimate D2E/DX2                !
 ! A7    A(1,4,7)              109.468          estimate D2E/DX2                !
 ! A8    A(5,4,6)              109.4747         estimate D2E/DX2                !
 ! A9    A(5,4,7)              109.474          estimate D2E/DX2                !
 ! A10   A(6,4,7)              109.4749         estimate D2E/DX2                !
 ! D1    D(2,1,3,8)              0.0            estimate D2E/DX2                !
 ! D2    D(4,1,3,8)            180.0            estimate D2E/DX2                !
 ! D3    D(2,1,4,5)            119.9886         estimate D2E/DX2                !
 ! D4    D(2,1,4,6)           -120.0112         estimate D2E/DX2                !
 ! D5    D(2,1,4,7)             -0.0114         estimate D2E/DX2                !
 ! D6    D(3,1,4,5)            -60.0114         estimate D2E/DX2                !
 ! D7    D(3,1,4,6)             59.9888         estimate D2E/DX2                !
 ! D8    D(3,1,4,7)            179.9886         estimate D2E/DX2                !
 --------------------------------------------------------------------------------
 Trust Radius=3.00D-01 FncErr=1.00D-07 GrdErr=1.00D-07
 Number of steps in this run=  35 maximum allowed number of steps= 100.
 GradGradGradGradGradGradGradGradGradGradGradGradGradGradGradGradGradGrad

                          Input orientation:                          
 ---------------------------------------------------------------------
 Center     Atomic     Atomic              Coordinates (Angstroms)
 Number     Number      Type              X           Y           Z
 ---------------------------------------------------------------------
    1          6             0        0.000000    0.000000    0.000000
    2          8             0        0.000000    0.000000    1.258473
    3          8             0        1.235622    0.000000   -0.719820
    4          6             0       -1.335185    0.000000   -0.767386
    5          1             0       -1.393114    0.873700   -1.382223
    6          1             0       -1.392915   -0.873600   -1.382570
    7          1             0       -2.147046   -0.000200   -0.070447
    8          1             0        1.967791    0.000000   -0.098898
 ---------------------------------------------------------------------
                    Distance matrix (angstroms):
                    1          2          3          4          5
     1  C    0.000000
     2  O    1.258473   0.000000
     3  O    1.430001   2.332468   0.000000
     4  C    1.540000   2.426277   2.571247   0.000000
     5  H    2.148176   3.110851   2.848225   1.069922   0.000000
     6  H    2.148229   3.111028   2.848091   1.070029   1.747300
     7  H    2.148201   2.525042   3.444434   1.069972   1.747246
     8  H    1.970275   2.390535   0.960008   3.369945   3.702156
                    6          7          8
     6  H    0.000000
     7  H    1.747343   0.000000
     8  H    3.702072   4.114935   0.000000
 Stoichiometry    C2H4O2
 Framework group  C1[X(C2H4O2)]
 Deg. of freedom    18
 Full point group                 C1      NOp   1
 Largest Abelian subgroup         C1      NOp   1
 Largest concise Abelian subgroup C1      NOp   1
                         Standard orientation:                         
 ---------------------------------------------------------------------
 Center     Atomic     Atomic              Coordinates (Angstroms)
 Number     Number      Type              X           Y           Z
 ---------------------------------------------------------------------
    1          6             0       -0.055647    0.090831    0.000002
    2          8             0       -0.334870    1.317936   -0.000007
    3          8             0       -1.100761   -0.885201    0.000004
    4          6             0        1.416522   -0.361184    0.000012
    5          1             0        1.609421   -0.947839    0.873716
    6          1             0        1.609311   -0.948232   -0.873584
    7          1             0        2.053515    0.498514   -0.000191
    8          1             0       -1.952448   -0.442205   -0.000002
 ---------------------------------------------------------------------
 Rotational constants (GHZ):     11.0796761      8.4131456      4.9254155
 Standard basis: 3-21G (6D, 7F)
 ***********************************************************************************************************************************
 *             ATOMIC CENTER             *        ATOMIC ORBITAL       *                     GAUSSIAN FUNCTIONS                    *
 ***********************************************************************************************************************************
 *                                       * FUNCTION    SHELL    SCALE  *                                                           *
 *    ATOM   X-COORD  Y-COORD  Z-COORD   *  NUMBER     TYPE     FACTOR *  EXPONENT    S-COEF      P-COEF      D-COEF      F-COEF   *
 ***********************************************************************************************************************************
 *     C     -0.10516  0.17165  0.00000                                                                                            *
+                                                1     S         1.00                                                               
+                                                                      0.172256D+030.617669D-010.000000D+000.000000D+000.000000D+00 
 *                                                                     0.259109D+020.358794D+000.000000D+000.000000D+000.000000D+00*
 *                                                                     0.553335D+010.700713D+000.000000D+000.000000D+000.000000D+00*
 *                                           2-  5     SP        1.00                                                              *
+                                                                      0.366498D+01-.395895D+000.236460D+000.000000D+000.000000D+00 
 *                                                                     0.770545D+000.121583D+010.860619D+000.000000D+000.000000D+00*
 *                                           6-  9     SP        1.00                                                              *
+                                                                      0.195857D+000.100000D+010.100000D+010.000000D+000.000000D+00 
 *---------------------------------------------------------------------------------------------------------------------------------*
 *     O     -0.63281  2.49054 -0.00001                                                                                            *
+                                               10     S         1.00                                                               
+                                                                      0.322037D+030.592394D-010.000000D+000.000000D+000.000000D+00 
 *                                                                     0.484308D+020.351500D+000.000000D+000.000000D+000.000000D+00*
 *                                                                     0.104206D+020.707658D+000.000000D+000.000000D+000.000000D+00*
 *                                          11- 14     SP        1.00                                                              *
+                                                                      0.740294D+01-.404454D+000.244586D+000.000000D+000.000000D+00 
 *                                                                     0.157620D+010.122156D+010.853955D+000.000000D+000.000000D+00*
 *                                          15- 18     SP        1.00                                                              *
+                                                                      0.373684D+000.100000D+010.100000D+010.000000D+000.000000D+00 
 *---------------------------------------------------------------------------------------------------------------------------------*
 *     O     -2.08014 -1.67279  0.00001                                                                                            *
+                                               19     S         1.00                                                               
+                                                                      0.322037D+030.592394D-010.000000D+000.000000D+000.000000D+00 
 *                                                                     0.484308D+020.351500D+000.000000D+000.000000D+000.000000D+00*
 *                                                                     0.104206D+020.707658D+000.000000D+000.000000D+000.000000D+00*
 *                                          20- 23     SP        1.00                                                              *
+                                                                      0.740294D+01-.404454D+000.244586D+000.000000D+000.000000D+00 
 *                                                                     0.157620D+010.122156D+010.853955D+000.000000D+000.000000D+00*
 *                                          24- 27     SP        1.00                                                              *
+                                                                      0.373684D+000.100000D+010.100000D+010.000000D+000.000000D+00 
 *---------------------------------------------------------------------------------------------------------------------------------*
 *     C      2.67684 -0.68254  0.00002                                                                                            *
+                                               28     S         1.00                                                               
+                                                                      0.172256D+030.617669D-010.000000D+000.000000D+000.000000D+00 
 *                                                                     0.259109D+020.358794D+000.000000D+000.000000D+000.000000D+00*
 *                                                                     0.553335D+010.700713D+000.000000D+000.000000D+000.000000D+00*
 *                                          29- 32     SP        1.00                                                              *
+                                                                      0.366498D+01-.395895D+000.236460D+000.000000D+000.000000D+00 
 *                                                                     0.770545D+000.121583D+010.860619D+000.000000D+000.000000D+00*
 *                                          33- 36     SP        1.00                                                              *
+                                                                      0.195857D+000.100000D+010.100000D+010.000000D+000.000000D+00 
 *---------------------------------------------------------------------------------------------------------------------------------*
 *     H      3.04136 -1.79116  1.65108                                                                                            *
+                                               37     S         1.10                                                               
+                                                                      0.450180D+010.156285D+000.000000D+000.000000D+000.000000D+00 
 *                                                                     0.681444D+000.904691D+000.000000D+000.000000D+000.000000D+00*
 *                                              38     S         1.10                                                              *
+                                                                      0.151398D+000.100000D+010.000000D+000.000000D+000.000000D+00 
 *---------------------------------------------------------------------------------------------------------------------------------*
 *     H      3.04116 -1.79190 -1.65083                                                                                            *
+                                               39     S         1.10                                                               
+                                                                      0.450180D+010.156285D+000.000000D+000.000000D+000.000000D+00 
 *                                                                     0.681444D+000.904691D+000.000000D+000.000000D+000.000000D+00*
 *                                              40     S         1.10                                                              *
+                                                                      0.151398D+000.100000D+010.000000D+000.000000D+000.000000D+00 
 *---------------------------------------------------------------------------------------------------------------------------------*
 *     H      3.88058  0.94206 -0.00036                                                                                            *
+                                               41     S         1.10                                                               
+                                                                      0.450180D+010.156285D+000.000000D+000.000000D+000.000000D+00 
 *                                                                     0.681444D+000.904691D+000.000000D+000.000000D+000.000000D+00*
 *                                              42     S         1.10                                                              *
+                                                                      0.151398D+000.100000D+010.000000D+000.000000D+000.000000D+00 
 *---------------------------------------------------------------------------------------------------------------------------------*
 *     H     -3.68959 -0.83565  0.00000                                                                                            *
+                                               43     S         1.10                                                               
+                                                                      0.450180D+010.156285D+000.000000D+000.000000D+000.000000D+00 
 *                                                                     0.681444D+000.904691D+000.000000D+000.000000D+000.000000D+00*
 *                                              44     S         1.10                                                              *
+                                                                      0.151398D+000.100000D+010.000000D+000.000000D+000.000000D+00 
 ***********************************************************************************************************************************
 There are    44 symmetry adapted basis functions of A   symmetry.
 Integral buffers will be    262144 words long.
 Raffenetti 1 integral format.
 Two-electron integral symmetry is turned on.
    44 basis functions,    72 primitive gaussians,    44 cartesian basis functions
    16 alpha electrons       16 beta electrons
       nuclear repulsion energy       117.1777793015 Hartrees.
 NAtoms=    8 NActive=    8 NUniq=    8 SFac= 1.00D+00 NAtFMM=   60 Big=F
 One-electron integrals computed using PRISM.
 NBasis=    44 RedAO= T  NBF=    44
 NBsUse=    44 1.00D-06 NBFU=    44
 Harris functional with IExCor=  205 diagonalized for initial guess.
 ExpMin= 1.83D-01 ExpMax= 3.22D+02 ExpMxC= 3.22D+02 IAcc=1 IRadAn=         1 AccDes= 1.00D-06
 HarFok:  IExCor= 205 AccDes= 1.00D-06 IRadAn=         1 IDoV=1
 ScaDFX=  1.000000  1.000000  1.000000  1.000000
 Initial guess orbital symmetries:
       Occupied  (A) (A) (A) (A) (A) (A) (A) (A) (A) (A) (A) (A)
                 (A) (A) (A) (A)
       Virtual   (A) (A) (A) (A) (A) (A) (A) (A) (A) (A) (A) (A)
                 (A) (A) (A) (A) (A) (A) (A) (A) (A) (A) (A) (A)
                 (A) (A) (A) (A)
 The electronic state of the initial guess is 1-A.
 Requested convergence on RMS density matrix=1.00D-08 within 128 cycles.
 Requested convergence on MAX density matrix=1.00D-06.
 Requested convergence on             energy=1.00D-06.
 No special actions if energy rises.
 Keep R1 integrals in memory in canonical form, NReq=      958990.
 SCF Done:  E(RHF) =  -226.518542845     A.U. after   13 cycles
             Convg  =    0.5144D-08             -V/T =  2.0042
             S**2   =   0.0000

 **********************************************************************

            Population analysis using the SCF density.

 **********************************************************************

 Orbital symmetries:
       Occupied  (A) (A) (A) (A) (A) (A) (A) (A) (A) (A) (A) (A)
                 (A) (A) (A) (A)
       Virtual   (A) (A) (A) (A) (A) (A) (A) (A) (A) (A) (A) (A)
                 (A) (A) (A) (A) (A) (A) (A) (A) (A) (A) (A) (A)
                 (A) (A) (A) (A)
 The electronic state is 1-A.
 Alpha  occ. eigenvalues --  -20.50118 -20.45653 -11.35375 -11.19513  -1.43104
 Alpha  occ. eigenvalues --   -1.34065  -1.02827  -0.80590  -0.68101  -0.65638
 Alpha  occ. eigenvalues --   -0.63598  -0.58625  -0.56055  -0.54830  -0.45507
 Alpha  occ. eigenvalues --   -0.43924
 Alpha virt. eigenvalues --    0.16365   0.25541   0.29212   0.32781   0.34269
 Alpha virt. eigenvalues --    0.37853   0.49940   0.56273   0.90912   0.95031
 Alpha virt. eigenvalues --    0.97322   1.03230   1.06303   1.08807   1.27362
 Alpha virt. eigenvalues --    1.29346   1.32845   1.34469   1.58681   1.79031
 Alpha virt. eigenvalues --    1.90088   1.94095   1.97626   2.00670   2.11875
 Alpha virt. eigenvalues --    2.20061   3.37230   3.51818
     Molecular Orbital Coefficients
                           1         2         3         4         5
                        (A)--O    (A)--O    (A)--O    (A)--O    (A)--O
     EIGENVALUES --   -20.50118 -20.45653 -11.35375 -11.19513  -1.43104
   1 1   C  1S         -0.00042  -0.00008   0.98671   0.00080  -0.11445
   2        2S         -0.00055   0.00026   0.09323  -0.00228   0.13416
   3        2PX        -0.00094  -0.00048   0.00027  -0.00012  -0.06532
   4        2PY        -0.00062   0.00190   0.00039   0.00001   0.04510
   5        2PZ         0.00000   0.00000   0.00000   0.00000   0.00000
   6        3S          0.01035   0.01843  -0.04642   0.02099   0.12877
   7        3PX        -0.01405  -0.00587  -0.01660   0.01399   0.04293
   8        3PY        -0.00936   0.02156   0.00696  -0.00315  -0.02598
   9        3PZ         0.00000   0.00000   0.00000   0.00000   0.00000
  10 2   O  1S          0.00049   0.98369   0.00011   0.00001  -0.13109
  11        2S          0.00028   0.09911   0.00111  -0.00019   0.12163
  12        2PX        -0.00078   0.00087  -0.00053   0.00003   0.01249
  13        2PY        -0.00017  -0.00451   0.00004   0.00026  -0.07898
  14        2PZ         0.00000   0.00000   0.00000   0.00000   0.00000
  15        3S         -0.00018  -0.05276  -0.00111  -0.00052   0.40839
  16        3PX         0.00428  -0.00293   0.00223  -0.00169   0.00304
  17        3PY         0.00165   0.01467   0.00463  -0.00007  -0.09268
  18        3PZ         0.00000   0.00000   0.00000   0.00000   0.00000
  19 3   O  1S          0.98354  -0.00041   0.00006   0.00002  -0.16500
  20        2S          0.09836   0.00019   0.00140  -0.00006   0.15107
  21        2PX         0.00029  -0.00067   0.00005  -0.00026   0.00181
  22        2PY         0.00385   0.00064   0.00123  -0.00015   0.06354
  23        2PZ         0.00000   0.00000   0.00000   0.00000   0.00000
  24        3S         -0.04685   0.00034   0.00023  -0.00015   0.51594
  25        3PX        -0.00308   0.00338   0.00192  -0.00014   0.00607
  26        3PY        -0.01014  -0.00371  -0.00420   0.00074   0.09341
  27        3PZ         0.00000   0.00000   0.00000   0.00000   0.00000
  28 4   C  1S         -0.00005   0.00001  -0.00152   0.98751  -0.01649
  29        2S         -0.00033  -0.00020  -0.00268   0.10220   0.01714
  30        2PX        -0.00015   0.00048   0.00057  -0.00022  -0.01764
  31        2PY        -0.00021   0.00032  -0.00018   0.00001   0.00648
  32        2PZ         0.00000   0.00000   0.00000   0.00000   0.00000
  33        3S          0.00407   0.00207   0.01962  -0.08456   0.00752
  34        3PX        -0.00020  -0.00385  -0.01388   0.00541   0.01398
  35        3PY         0.00530  -0.00680   0.00378  -0.00217  -0.00243
  36        3PZ         0.00000   0.00000   0.00000   0.00000   0.00000
  37 5   H  1S          0.00032  -0.00047  -0.00158   0.00005   0.00566
  38        2S          0.00049  -0.00118   0.00231   0.01495  -0.00481
  39 6   H  1S          0.00032  -0.00047  -0.00158   0.00005   0.00566
  40        2S          0.00050  -0.00118   0.00231   0.01494  -0.00481
  41 7   H  1S         -0.00100   0.00073  -0.00127   0.00011   0.00630
  42        2S         -0.00125   0.00339   0.00200   0.01534  -0.00488
  43 8   H  1S          0.00326   0.00154   0.00107  -0.00013   0.07149
  44        2S          0.00463  -0.00031   0.00127   0.00144   0.01136
                           6         7         8         9        10
                        (A)--O    (A)--O    (A)--O    (A)--O    (A)--O
     EIGENVALUES --    -1.34065  -1.02827  -0.80590  -0.68101  -0.65638
   1 1   C  1S         -0.04590  -0.07072  -0.12556   0.07652  -0.01783
   2        2S          0.05321   0.09035   0.15038  -0.10480   0.03873
   3        2PX         0.02477   0.12975  -0.05413  -0.14053  -0.25293
   4        2PY         0.16480  -0.07862  -0.11252  -0.18351   0.07225
   5        2PZ         0.00000   0.00000   0.00000   0.00002   0.00004
   6        3S          0.04371   0.12861   0.36652  -0.20625  -0.02859
   7        3PX         0.00036   0.04076   0.03233  -0.14902  -0.23879
   8        3PY        -0.03105  -0.02620  -0.07997  -0.03280   0.05581
   9        3PZ         0.00000   0.00000   0.00000   0.00001   0.00004
  10 2   O  1S         -0.17070   0.04881   0.05545  -0.08748   0.04609
  11        2S          0.16120  -0.04702  -0.05376   0.08107  -0.03930
  12        2PX         0.02636   0.02983  -0.00291  -0.16626  -0.16584
  13        2PY        -0.07988  -0.00272  -0.08546   0.21447  -0.18609
  14        2PZ         0.00000   0.00000   0.00000   0.00001   0.00003
  15        3S          0.54711  -0.17197  -0.21665   0.36147  -0.21500
  16        3PX         0.03100   0.01932  -0.01038  -0.14884  -0.16041
  17        3PY        -0.09318   0.00283  -0.07719   0.21100  -0.17783
  18        3PZ         0.00000   0.00000   0.00000   0.00001   0.00003
  19 3   O  1S          0.15802   0.02110   0.02678  -0.02235   0.05997
  20        2S         -0.14760  -0.02071  -0.03018   0.02319  -0.05755
  21        2PX         0.01734   0.05935   0.29560   0.19724  -0.02730
  22        2PY        -0.03917  -0.00836   0.04892  -0.04894   0.27942
  23        2PZ         0.00000   0.00000   0.00000   0.00001   0.00004
  24        3S         -0.51772  -0.07584  -0.09832   0.08931  -0.26397
  25        3PX        -0.00391   0.04557   0.27302   0.20780  -0.02813
  26        3PY        -0.05215  -0.00659   0.06166  -0.06430   0.29580
  27        3PZ         0.00000   0.00000   0.00000   0.00001   0.00004
  28 4   C  1S         -0.00856  -0.19570   0.06729  -0.01953  -0.02080
  29        2S          0.00838   0.18806  -0.05972   0.01246   0.01094
  30        2PX        -0.00705  -0.03139  -0.13401   0.10425   0.14285
  31        2PY         0.00926   0.00421   0.00623  -0.15825  -0.07553
  32        2PZ         0.00000   0.00002  -0.00002   0.00005   0.00009
  33        3S          0.01779   0.57273  -0.26632   0.11363   0.16756
  34        3PX         0.01167  -0.01107  -0.04814   0.02111   0.07782
  35        3PY         0.02970   0.00040  -0.01058  -0.12729  -0.03271
  36        3PZ         0.00000   0.00001  -0.00001   0.00004   0.00006
  37 5   H  1S          0.00352   0.10832  -0.06141   0.08023   0.06004
  38        2S          0.00047   0.00069  -0.02930   0.06042   0.03992
  39 6   H  1S          0.00352   0.10829  -0.06138   0.08019   0.05994
  40        2S          0.00047   0.00069  -0.02929   0.06040   0.03984
  41 7   H  1S          0.00229   0.10481  -0.08529  -0.02696   0.03002
  42        2S         -0.01071  -0.00460  -0.04594   0.00417  -0.00619
  43 8   H  1S         -0.08133  -0.04131  -0.17483  -0.11825   0.05794
  44        2S         -0.01161  -0.02065  -0.10762  -0.07560   0.01430
                          11        12        13        14        15
                        (A)--O    (A)--O    (A)--O    (A)--O    (A)--O
     EIGENVALUES --    -0.63598  -0.58625  -0.56055  -0.54830  -0.45507
   1 1   C  1S         -0.00001   0.02098   0.00000  -0.01158   0.00000
   2        2S          0.00001  -0.02349   0.00000   0.00174   0.00000
   3        2PX         0.00008  -0.11032   0.00004   0.09952   0.00000
   4        2PY         0.00001   0.01367  -0.00009  -0.25566   0.00000
   5        2PZ         0.19427   0.00004   0.12526  -0.00003   0.16587
   6        3S          0.00005  -0.07467   0.00002   0.08392   0.00000
   7        3PX         0.00009  -0.08157   0.00000   0.01661  -0.00001
   8        3PY        -0.00001  -0.00623   0.00001   0.00494  -0.00001
   9        3PZ         0.18505   0.00004   0.17881  -0.00005   0.17248
  10 2   O  1S          0.00000   0.00163  -0.00001  -0.03521   0.00000
  11        2S          0.00000  -0.00153   0.00001   0.03845   0.00000
  12        2PX         0.00007  -0.01672  -0.00004  -0.05541  -0.00002
  13        2PY         0.00001  -0.00169   0.00009   0.27936   0.00000
  14        2PZ         0.14750   0.00003   0.12527  -0.00003   0.36658
  15        3S          0.00000  -0.00176   0.00004   0.11081   0.00000
  16        3PX         0.00007  -0.00577  -0.00005  -0.07450  -0.00003
  17        3PY         0.00001  -0.00004   0.00010   0.31694   0.00000
  18        3PZ         0.15002   0.00003   0.12707  -0.00003   0.44552
  19 3   O  1S         -0.00001  -0.02648   0.00002   0.05207   0.00000
  20        2S          0.00001   0.02186  -0.00002  -0.05162   0.00000
  21        2PX        -0.00002   0.14087  -0.00004  -0.06383   0.00000
  22        2PY        -0.00007  -0.04019   0.00012   0.30149  -0.00001
  23        2PZ         0.20749   0.00007   0.34461  -0.00011  -0.30644
  24        3S          0.00006   0.12213  -0.00011  -0.22420  -0.00001
  25        3PX        -0.00002   0.15379  -0.00004  -0.04930   0.00000
  26        3PY        -0.00008  -0.04235   0.00013   0.34521  -0.00002
  27        3PZ         0.22491   0.00008   0.39331  -0.00013  -0.39374
  28 4   C  1S          0.00001  -0.00233  -0.00001  -0.00693   0.00000
  29        2S         -0.00001   0.00130   0.00000   0.00271   0.00000
  30        2PX        -0.00006   0.21047  -0.00006  -0.12210   0.00000
  31        2PY         0.00000   0.30423  -0.00001   0.13584   0.00000
  32        2PZ         0.28646  -0.00002  -0.24848   0.00009  -0.06403
  33        3S         -0.00010   0.01987   0.00006   0.06804   0.00002
  34        3PX        -0.00003   0.16154  -0.00006  -0.11839   0.00000
  35        3PY         0.00000   0.26430  -0.00002   0.10089   0.00002
  36        3PZ         0.22099  -0.00002  -0.25319   0.00009  -0.04151
  37 5   H  1S          0.15808  -0.09104  -0.15101  -0.06998  -0.04585
  38        2S          0.12435  -0.06794  -0.11388  -0.07680  -0.07417
  39 6   H  1S         -0.15808  -0.09110   0.15097  -0.07011   0.04584
  40        2S         -0.12436  -0.06800   0.11386  -0.07692   0.07417
  41 7   H  1S         -0.00007   0.26364   0.00001   0.03619   0.00001
  42        2S         -0.00005   0.21476   0.00001   0.03532   0.00000
  43 8   H  1S          0.00000  -0.09109   0.00005   0.10405   0.00000
  44        2S          0.00000  -0.07544   0.00004   0.07556   0.00000
                          16        17        18        19        20
                        (A)--O    (A)--V    (A)--V    (A)--V    (A)--V
     EIGENVALUES --    -0.43924   0.16365   0.25541   0.29212   0.32781
   1 1   C  1S          0.01670   0.00000   0.05578  -0.00341   0.02250
   2        2S         -0.01779   0.00000  -0.01649   0.04063   0.00138
   3        2PX        -0.11440   0.00000   0.04813  -0.01412  -0.03805
   4        2PY         0.01857   0.00000   0.12254  -0.05289  -0.03079
   5        2PZ         0.00001   0.42091   0.00002   0.00005   0.00005
   6        3S         -0.05333   0.00000  -0.53000  -0.05190  -0.32084
   7        3PX         0.06754   0.00000  -0.21016   0.10835  -0.14544
   8        3PY         0.07774   0.00001   0.21977  -0.08377  -0.01989
   9        3PZ         0.00001   0.61625   0.00002   0.00010   0.00018
  10 2   O  1S         -0.00185   0.00000  -0.00931  -0.01375  -0.01683
  11        2S          0.00486   0.00000   0.01949   0.00465   0.01001
  12        2PX         0.44898   0.00000  -0.05329   0.05648  -0.00165
  13        2PY         0.08458   0.00000  -0.01869  -0.02139  -0.06404
  14        2PZ         0.00002  -0.29850  -0.00001  -0.00002  -0.00002
  15        3S         -0.00781   0.00000   0.00442   0.13336   0.13358
  16        3PX         0.51847   0.00000  -0.04687   0.06717   0.04079
  17        3PY         0.10109   0.00000  -0.02371  -0.07883  -0.12082
  18        3PZ         0.00002  -0.48792  -0.00002  -0.00005  -0.00006
  19 3   O  1S         -0.00833   0.00000  -0.09886   0.02535  -0.02108
  20        2S         -0.01036   0.00000   0.05285  -0.01298   0.00150
  21        2PX         0.08009   0.00000  -0.08070   0.05574  -0.11693
  22        2PY         0.18238   0.00000   0.13847  -0.04168   0.04238
  23        2PZ        -0.00001  -0.15372  -0.00001  -0.00002  -0.00004
  24        3S          0.11911  -0.00001   0.84280  -0.22468   0.25515
  25        3PX         0.12641   0.00001  -0.24769   0.14564  -0.23067
  26        3PY         0.24869   0.00000   0.28630  -0.05712   0.07913
  27        3PZ        -0.00001  -0.23883  -0.00001  -0.00003  -0.00005
  28 4   C  1S          0.02308   0.00001  -0.09449  -0.13180   0.02306
  29        2S         -0.01366  -0.00001   0.03195   0.03391  -0.00633
  30        2PX         0.14298  -0.00001  -0.04643   0.10665  -0.15276
  31        2PY        -0.10366   0.00001   0.04643  -0.12566  -0.21303
  32        2PZ        -0.00001   0.00126  -0.00001  -0.00007  -0.00014
  33        3S         -0.18864  -0.00006   1.25884   1.92671  -0.38420
  34        3PX         0.14563  -0.00002  -0.04644   0.47014  -0.73047
  35        3PY        -0.10703  -0.00001   0.32908  -0.68153  -1.06761
  36        3PZ         0.00000   0.23532  -0.00001  -0.00019  -0.00065
  37 5   H  1S          0.04895  -0.08987   0.03060  -0.02404  -0.02792
  38        2S          0.06535  -0.37507  -0.24988  -1.31890  -0.46394
  39 6   H  1S          0.04898   0.08985   0.03061  -0.02408  -0.02797
  40        2S          0.06539   0.37506  -0.24972  -1.31937  -0.46575
  41 7   H  1S         -0.01551   0.00002  -0.04699   0.03189   0.07965
  42        2S          0.04067   0.00014  -0.82177  -0.38097   1.81989
  43 8   H  1S         -0.00909   0.00000  -0.08953   0.02757   0.00133
  44        2S         -0.05624   0.00002  -1.09832   0.42026  -0.53397
                          21        22        23        24        25
                        (A)--V    (A)--V    (A)--V    (A)--V    (A)--V
     EIGENVALUES --     0.34269   0.37853   0.49940   0.56273   0.90912
   1 1   C  1S         -0.00006  -0.17069   0.03781  -0.04517   0.00000
   2        2S          0.00001   0.08933  -0.00020  -0.04849  -0.00002
   3        2PX         0.00004   0.08738   0.49067   0.08037   0.00003
   4        2PY        -0.00001  -0.16247   0.06915   0.23745   0.00010
   5        2PZ         0.12219  -0.00003   0.00000   0.00000  -0.77713
   6        3S          0.00076   2.00620   0.00477   0.86233   0.00012
   7        3PX         0.00020   0.56512   1.66589  -0.06280  -0.00008
   8        3PY        -0.00005  -0.41628  -0.07001   1.85456   0.00014
   9        3PZ         0.41833  -0.00011   0.00000  -0.00002   0.53556
  10 2   O  1S          0.00002   0.02341  -0.04065   0.12155   0.00001
  11        2S         -0.00001  -0.01453   0.02371  -0.04156   0.00000
  12        2PX        -0.00001  -0.03721  -0.14200  -0.08788   0.00002
  13        2PY         0.00007   0.10378  -0.12397   0.16933   0.00002
  14        2PZ        -0.06233   0.00001   0.00000   0.00000  -0.01190
  15        3S         -0.00017  -0.19627   0.40111  -1.50957  -0.00013
  16        3PX        -0.00006  -0.12102  -0.34162  -0.25617   0.00000
  17        3PY         0.00015   0.21318  -0.33022   0.72220   0.00008
  18        3PZ        -0.15001   0.00004   0.00000   0.00000  -0.05536
  19 3   O  1S          0.00001   0.02281  -0.06365  -0.03694   0.00000
  20        2S          0.00000  -0.02229   0.04059   0.01219   0.00000
  21        2PX        -0.00001  -0.23380   0.18197   0.09864   0.00000
  22        2PY        -0.00004  -0.07210   0.18893  -0.04411   0.00001
  23        2PZ        -0.07165   0.00002   0.00000   0.00000  -0.02376
  24        3S         -0.00010  -0.11434   0.58448   0.43106   0.00001
  25        3PX        -0.00008  -0.57820   0.44739   0.34654   0.00002
  26        3PY        -0.00007  -0.12229   0.47863  -0.01803  -0.00001
  27        3PZ        -0.10851   0.00003   0.00000   0.00000  -0.06774
  28 4   C  1S          0.00004   0.07713   0.06337   0.00464  -0.00001
  29        2S          0.00000  -0.01698   0.00218  -0.01661  -0.00002
  30        2PX         0.00011   0.19223  -0.01064  -0.02986  -0.00006
  31        2PY         0.00009  -0.05909  -0.02862  -0.18389   0.00013
  32        2PZ        -0.30391   0.00010   0.00000   0.00002  -0.47327
  33        3S         -0.00065  -0.91148  -1.19935   0.14713   0.00025
  34        3PX         0.00057   1.28873   0.93168  -0.21535   0.00005
  35        3PY         0.00055  -0.29979  -0.54062  -0.68764  -0.00035
  36        3PZ        -1.48971   0.00047   0.00002   0.00004   0.86594
  37 5   H  1S          0.03270  -0.04810  -0.03638   0.05677  -0.41008
  38        2S          1.50022  -0.09494  -0.03809  -0.33045  -0.04786
  39 6   H  1S         -0.03271  -0.04808  -0.03637   0.05680   0.40982
  40        2S         -1.49880  -0.09398  -0.03815  -0.33051   0.04764
  41 7   H  1S         -0.00006  -0.02406  -0.06954  -0.15204   0.00017
  42        2S         -0.00113  -0.15241   0.26326   0.63691   0.00002
  43 8   H  1S         -0.00002  -0.01487   0.06956  -0.10908  -0.00002
  44        2S          0.00002  -0.55614   0.34796   0.15661  -0.00001
                          26        27        28        29        30
                        (A)--V    (A)--V    (A)--V    (A)--V    (A)--V
     EIGENVALUES --     0.95031   0.97322   1.03230   1.06303   1.08807
   1 1   C  1S          0.01788  -0.00792   0.00001  -0.05118   0.00838
   2        2S          0.09311   0.05709  -0.00001   0.31880  -0.14696
   3        2PX        -0.47941   0.04365   0.00001  -0.71576   0.51607
   4        2PY        -0.55210  -0.46394  -0.00027   0.72970   0.46300
   5        2PZ        -0.00011  -0.00029   0.73205   0.00006   0.00005
   6        3S          0.06033  -0.79533  -0.00021   0.13510   0.07933
   7        3PX         0.87840  -0.03852  -0.00001   1.41031  -1.35310
   8        3PY         0.03268   0.10495   0.00040  -0.92042  -1.64489
   9        3PZ         0.00011   0.00036  -1.20269  -0.00013  -0.00011
  10 2   O  1S         -0.03326  -0.02287   0.00000   0.01584  -0.02116
  11        2S          0.03594  -0.00071   0.00000  -0.04087  -0.00004
  12        2PX         0.01178  -0.11018  -0.00001  -0.17888   0.06482
  13        2PY        -0.10239  -0.09860  -0.00006   0.21617   0.08230
  14        2PZ        -0.00001  -0.00002   0.07292   0.00000   0.00000
  15        3S          0.22599   0.21306  -0.00011   0.40246   0.59353
  16        3PX        -0.06696   0.02879   0.00000  -0.18981   0.25669
  17        3PY        -0.24994  -0.24447  -0.00005   0.10797  -0.07020
  18        3PZ        -0.00001  -0.00005   0.17197   0.00002   0.00002
  19 3   O  1S         -0.00250   0.00422   0.00000   0.01273   0.02409
  20        2S         -0.01240  -0.01876  -0.00001  -0.03454   0.03267
  21        2PX        -0.00865  -0.04681  -0.00003   0.04158   0.06514
  22        2PY        -0.09956  -0.02241  -0.00002   0.00266   0.08546
  23        2PZ        -0.00001  -0.00003   0.11527   0.00002   0.00002
  24        3S          0.20834   0.11319   0.00014   0.06018  -0.82394
  25        3PX        -0.03320   0.08785   0.00008   0.02969  -0.43016
  26        3PY         0.08352   0.00939   0.00001   0.13851  -0.19274
  27        3PZ        -0.00001  -0.00004   0.12608   0.00001   0.00001
  28 4   C  1S         -0.02355   0.03926   0.00000  -0.00156  -0.00199
  29        2S          0.07798  -0.08705  -0.00004   0.03542   0.00368
  30        2PX        -0.64682   0.70435   0.00015   0.08625  -0.29856
  31        2PY        -0.18459  -0.52185  -0.00004  -0.21184  -0.63425
  32        2PZ        -0.00003   0.00000  -0.62212  -0.00011  -0.00013
  33        3S         -0.26331  -0.12001   0.00023  -0.82172   0.39026
  34        3PX         1.08028  -0.90225  -0.00024   0.41034   0.44502
  35        3PY         0.45242   0.94482  -0.00008   0.31428   1.80070
  36        3PZ         0.00002  -0.00018   1.47222   0.00023   0.00022
  37 5   H  1S          0.08509   0.32276  -0.33776   0.05639   0.13554
  38        2S         -0.02917   0.15745  -0.23886   0.01283   0.28421
  39 6   H  1S          0.08527   0.32288   0.33771   0.05651   0.13573
  40        2S         -0.02915   0.15729   0.23869   0.01295   0.28446
  41 7   H  1S         -0.46337  -0.10781   0.00008  -0.09234  -0.28095
  42        2S         -0.16552   0.02605   0.00011  -0.09139  -0.57533
  43 8   H  1S         -0.11854   0.14702   0.00002   0.27675  -0.21981
  44        2S          0.22876  -0.05602   0.00000   0.09169  -0.13038
                          31        32        33        34        35
                        (A)--V    (A)--V    (A)--V    (A)--V    (A)--V
     EIGENVALUES --     1.27362   1.29346   1.32845   1.34469   1.58681
   1 1   C  1S         -0.04361   0.00721  -0.00004   0.00313   0.00644
   2        2S          0.74214  -0.29871   0.00076  -0.03767  -1.27754
   3        2PX         0.17065   0.20056   0.00002   0.08222  -0.27130
   4        2PY         0.00764  -0.03688  -0.00022   0.16044   0.07329
   5        2PZ         0.00009  -0.00002  -0.11199  -0.00013  -0.00001
   6        3S         -0.65437   0.37653  -0.00071  -0.03288   2.44588
   7        3PX        -0.12326  -1.02932   0.00033  -0.28611   0.75407
   8        3PY         0.04187   0.17921   0.00065  -0.43441  -0.24935
   9        3PZ        -0.00008   0.00001   0.09244   0.00009   0.00000
  10 2   O  1S         -0.00097   0.01151   0.00001  -0.00747   0.01409
  11        2S          0.00824  -0.00931  -0.00001   0.00775  -0.02572
  12        2PX         0.04615   0.04490   0.00002  -0.00194  -0.14168
  13        2PY         0.10810  -0.04025   0.00008   0.00770  -0.21917
  14        2PZ         0.00005  -0.00001  -0.07401  -0.00007  -0.00002
  15        3S          0.09211  -0.27995  -0.00013   0.17605  -0.29434
  16        3PX        -0.01122   0.11108  -0.00012   0.07899   0.00955
  17        3PY        -0.02694   0.11995  -0.00002  -0.02274   0.26994
  18        3PZ        -0.00001   0.00000   0.02196   0.00002   0.00001
  19 3   O  1S         -0.00208   0.04976  -0.00003   0.01224   0.02640
  20        2S         -0.00489  -0.05733   0.00003  -0.02848  -0.03938
  21        2PX         0.06730   0.22331   0.00010  -0.08417  -0.03172
  22        2PY        -0.13655  -0.27264  -0.00016   0.07399   0.29027
  23        2PZ         0.00000   0.00000   0.00252  -0.00002  -0.00001
  24        3S          0.09971  -0.25950   0.00040  -0.19594  -0.27155
  25        3PX         0.07481   0.17129   0.00018  -0.08917  -0.14701
  26        3PY         0.08362  -0.21493   0.00018  -0.06467  -0.33356
  27        3PZ         0.00002   0.00000  -0.01678  -0.00001   0.00000
  28 4   C  1S          0.09131  -0.02896   0.00008  -0.01393   0.06860
  29        2S         -0.10419   0.00788  -0.00001   0.01403  -0.52968
  30        2PX        -0.36071  -0.11825  -0.00055   0.25994  -0.19984
  31        2PY         0.22898   0.02460  -0.00069   0.70855   0.07228
  32        2PZ         0.00052  -0.00012  -0.84481  -0.00110  -0.00013
  33        3S          0.05358   0.59050  -0.00021   0.09456   0.10506
  34        3PX         0.10146  -0.05845   0.00028  -0.25960   0.99397
  35        3PY        -0.17100   0.17838   0.00054  -0.58449  -0.30390
  36        3PZ        -0.00064   0.00014   0.93956   0.00123   0.00016
  37 5   H  1S          0.65666  -0.06861   0.77636   0.37856   0.38126
  38        2S         -0.37692   0.00504  -1.16620  -0.57148  -0.60638
  39 6   H  1S          0.65774  -0.06880  -0.77630   0.37696   0.38107
  40        2S         -0.37863   0.00539   1.16697  -0.56894  -0.60603
  41 7   H  1S          0.49409  -0.25392   0.00144  -1.01671   0.33274
  42        2S         -0.12437   0.05343  -0.00131   1.28611  -0.54740
  43 8   H  1S          0.16083   1.27448   0.00008  -0.12754   0.08055
  44        2S         -0.07017  -1.02784   0.00007   0.02798  -0.04628
                          36        37        38        39        40
                        (A)--V    (A)--V    (A)--V    (A)--V    (A)--V
     EIGENVALUES --     1.79031   1.90088   1.94095   1.97626   2.00670
   1 1   C  1S          0.00000   0.00534   0.00000  -0.02411   0.01695
   2        2S          0.00000  -0.42311   0.00007  -0.04975  -0.01190
   3        2PX         0.00000   0.01159   0.00000   0.11118   0.12141
   4        2PY         0.00000  -0.05203   0.00002  -0.21878   0.20607
   5        2PZ        -0.04527   0.00001   0.09414   0.00001   0.00000
   6        3S         -0.00001  -0.58780  -0.00006   0.18977  -0.04135
   7        3PX         0.00001   0.22418  -0.00005  -0.69864  -0.24637
   8        3PY         0.00002  -0.17255   0.00004  -0.09932  -0.33482
   9        3PZ         0.18722  -0.00004  -0.60953  -0.00002   0.00001
  10 2   O  1S          0.00000  -0.04968   0.00001  -0.02427   0.00611
  11        2S          0.00000   0.17334  -0.00003   0.12851  -0.04006
  12        2PX         0.00001  -0.09866   0.00003  -0.74789  -0.58720
  13        2PY        -0.00001   0.72700  -0.00009   0.37390  -0.51373
  14        2PZ        -0.50460  -0.00008  -0.91275  -0.00005   0.00001
  15        3S          0.00000   0.24326  -0.00001  -0.07839   0.12679
  16        3PX        -0.00001   0.12043  -0.00003   0.93459   0.67951
  17        3PY         0.00001  -0.99611   0.00012  -0.43580   0.56982
  18        3PZ         0.42308   0.00009   1.02459   0.00006  -0.00002
  19 3   O  1S          0.00000  -0.02720   0.00000   0.03584  -0.01419
  20        2S          0.00000   0.09752   0.00000  -0.17877   0.08868
  21        2PX         0.00000  -0.13129  -0.00001   0.28929  -0.16520
  22        2PY         0.00000  -0.47615   0.00002   0.32271  -0.63748
  23        2PZ         0.90104  -0.00003  -0.49615  -0.00002   0.00001
  24        3S          0.00001   0.08362   0.00000  -0.11052  -0.19268
  25        3PX         0.00001   0.15762   0.00003  -0.43855   0.07098
  26        3PY         0.00000   0.62633  -0.00003  -0.49785   0.71061
  27        3PZ        -0.90052   0.00004   0.60972   0.00002  -0.00001
  28 4   C  1S          0.00000  -0.00693   0.00000  -0.00079  -0.00114
  29        2S          0.00000  -0.86267   0.00000   0.68784   0.08900
  30        2PX         0.00001   0.01575   0.00001  -0.08626  -0.04143
  31        2PY         0.00003   0.02931   0.00000   0.07904   0.02567
  32        2PZ         0.06631  -0.00001  -0.01229   0.00002   0.00001
  33        3S         -0.00002   1.54528   0.00006  -0.88678  -0.03094
  34        3PX        -0.00003   0.05445  -0.00005  -0.11454   0.04571
  35        3PY        -0.00006  -0.08760   0.00000  -0.02198   0.09271
  36        3PZ        -0.22799   0.00006   0.27596  -0.00005  -0.00003
  37 5   H  1S         -0.01122  -0.05514  -0.08869   0.01793   0.00668
  38        2S          0.13658  -0.37389  -0.01207   0.24936   0.03681
  39 6   H  1S          0.01124  -0.05519   0.08864   0.01797   0.00668
  40        2S         -0.13661  -0.37376   0.01206   0.24921   0.03678
  41 7   H  1S         -0.00002  -0.05264   0.00000   0.07522   0.02499
  42        2S          0.00005  -0.30511   0.00004   0.23154  -0.07110
  43 8   H  1S          0.00000  -0.15691   0.00001   0.04180  -0.24850
  44        2S          0.00000   0.12620   0.00000  -0.23520   0.15291
                          41        42        43        44
                        (A)--V    (A)--V    (A)--V    (A)--V
     EIGENVALUES --     2.11875   2.20061   3.37230   3.51818
   1 1   C  1S          0.01353   0.04311   0.03097   0.02464
   2        2S          0.20855   0.87087   0.00656  -0.10755
   3        2PX         0.16848   0.10013   0.05503   0.05829
   4        2PY         0.00153  -0.06615   0.12566  -0.17105
   5        2PZ         0.00000   0.00000   0.00000   0.00000
   6        3S         -0.93697  -2.45091  -0.25334  -1.11259
   7        3PX        -0.53650  -2.03703   0.98799   0.71439
   8        3PY         0.64037   0.39939   0.87921  -1.17270
   9        3PZ         0.00001   0.00001   0.00000   0.00002
  10 2   O  1S          0.01770   0.01089  -0.01803   0.04970
  11        2S         -0.10830  -0.09078   0.44478  -1.68799
  12        2PX        -0.14390  -0.27251   0.13661  -0.01808
  13        2PY         0.10973  -0.17941  -0.05468   0.25371
  14        2PZ         0.00001   0.00002   0.00000   0.00000
  15        3S         -0.09767   0.11163  -0.70089   2.73616
  16        3PX         0.21429   0.60591  -0.43676   0.08545
  17        3PY        -0.08390   0.22458   0.14202  -1.00760
  18        3PZ        -0.00001  -0.00003   0.00000   0.00000
  19 3   O  1S          0.00807   0.02263   0.05966   0.00998
  20        2S          0.01019  -0.17465  -1.64977  -0.44766
  21        2PX        -0.97700   0.12846  -0.12353   0.07885
  22        2PY         0.24612   0.27650  -0.20625  -0.14493
  23        2PZ         0.00000   0.00001   0.00000   0.00000
  24        3S         -0.07012   0.06494   2.40737   0.63176
  25        3PX         1.55649  -0.04423   0.34081  -0.24940
  26        3PY        -0.37666  -0.48458   0.66149   0.49085
  27        3PZ         0.00000  -0.00002   0.00000  -0.00001
  28 4   C  1S         -0.02085  -0.08392   0.00847   0.00401
  29        2S          0.08538  -1.74420   0.07065   0.07904
  30        2PX        -0.18658  -0.04326   0.02884  -0.01870
  31        2PY        -0.05857  -0.00540  -0.00023  -0.00888
  32        2PZ         0.00004   0.00004   0.00000   0.00001
  33        3S          0.52275   4.84433  -0.46729  -0.42482
  34        3PX        -0.17111  -0.93042   0.01647   0.28958
  35        3PY         0.18566   0.41179  -0.45622   0.28611
  36        3PZ        -0.00010  -0.00003   0.00000  -0.00005
  37 5   H  1S         -0.05564  -0.32898  -0.02335   0.04007
  38        2S          0.10238  -0.47939  -0.02007   0.07600
  39 6   H  1S         -0.05560  -0.32901  -0.02337   0.04009
  40        2S          0.10224  -0.47928  -0.02010   0.07594
  41 7   H  1S          0.01195  -0.29609   0.11135  -0.02184
  42        2S         -0.16143  -0.64351   0.13097  -0.13897
  43 8   H  1S          0.43538   0.10608  -0.27571  -0.23863
  44        2S          0.35690  -0.25708  -0.11932  -0.02082
      DENSITY MATRIX.
                           1         2         3         4         5
   1 1   C  1S          2.03320
   2        2S          0.07880   0.14732
   3        2PX        -0.01479   0.01180   0.28706
   4        2PY        -0.00885   0.02353  -0.04907   0.30565
   5        2PZ         0.00000   0.00000   0.00000   0.00000   0.16189
   6        3S         -0.27271   0.21064   0.09679  -0.05202   0.00000
   7        3PX        -0.07230   0.03973   0.17004   0.00226   0.00000
   8        3PY         0.04153  -0.02899  -0.03073   0.02994   0.00000
   9        3PZ         0.00000   0.00000   0.00000   0.00000   0.17391
  10 2   O  1S          0.01070  -0.00554   0.00871  -0.02777   0.00000
  11        2S         -0.00730   0.00538  -0.01041   0.02901   0.00000
  12        2PX        -0.01377   0.01719   0.02829   0.08739   0.00000
  13        2PY         0.08309  -0.11721   0.08539  -0.25916   0.00000
  14        2PZ         0.00000   0.00000   0.00000   0.00000   0.21030
  15        3S         -0.00708  -0.02033  -0.01598   0.07202   0.00000
  16        3PX         0.00247   0.00523  -0.00193   0.09841   0.00000
  17        3PY         0.09255  -0.11711   0.08718  -0.28353   0.00000
  18        3PZ         0.00000   0.00000   0.00000   0.00000   0.23792
  19 3   O  1S          0.00467  -0.00560   0.02417   0.01584   0.00000
  20        2S         -0.00047   0.00200  -0.01947  -0.01531   0.00000
  21        2PX        -0.04330   0.04882  -0.11972  -0.10685   0.00000
  22        2PY        -0.03966   0.05466  -0.11816  -0.10702   0.00000
  23        2PZ         0.00000   0.00000   0.00000   0.00000   0.06529
  24        3S          0.00271  -0.00977  -0.09240  -0.03852   0.00000
  25        3PX        -0.02763   0.03430  -0.13556  -0.11555   0.00000
  26        3PY        -0.06127   0.06682  -0.13356  -0.12370   0.00000
  27        3PZ         0.00000   0.00000   0.00000   0.00000   0.05530
  28 4   C  1S          0.01250  -0.02351  -0.04672   0.01984   0.00000
  29        2S         -0.02037   0.01921   0.04776  -0.01667   0.00000
  30        2PX         0.07121  -0.07754  -0.19670   0.08706   0.00000
  31        2PY        -0.02021   0.02251   0.06635  -0.01625   0.00000
  32        2PZ         0.00000   0.00000   0.00000   0.00000   0.02781
  33        3S          0.02545   0.02652   0.11300  -0.08231   0.00000
  34        3PX        -0.00316  -0.02569  -0.13674   0.09151   0.00000
  35        3PY        -0.00526   0.01599   0.04162   0.00552   0.00001
  36        3PZ         0.00000   0.00000   0.00000   0.00000   0.00867
  37 5   H  1S          0.00494  -0.00717  -0.02376   0.01283   0.00839
  38        2S          0.02184  -0.01854  -0.04841   0.02966  -0.00481
  39 6   H  1S          0.00493  -0.00717  -0.02376   0.01283  -0.00839
  40        2S          0.02184  -0.01854  -0.04841   0.02966   0.00481
  41 7   H  1S          0.00695  -0.00874  -0.01930   0.00640   0.00000
  42        2S          0.02867  -0.02956  -0.04382  -0.00599   0.00000
  43 8   H  1S          0.01626  -0.01508   0.04165   0.02123   0.00000
  44        2S          0.01205  -0.01130   0.06279   0.01168   0.00000
                           6         7         8         9        10
   6        3S          0.46246
   7        3PX         0.12979   0.19195
   8        3PY        -0.07114  -0.01506   0.03926
   9        3PZ         0.00000   0.00000   0.00000   0.19193
  10 2   O  1S          0.06827  -0.01301   0.05863   0.00000   2.06091
  11        2S         -0.02757  -0.00117  -0.00953   0.00000   0.07698
  12        2PX         0.03451   0.19366   0.05853   0.00000   0.00802
  13        2PY        -0.13054   0.03341   0.00377   0.00000  -0.04530
  14        2PZ         0.00000   0.00000   0.00000   0.22584   0.00000
  15        3S         -0.16902   0.00594  -0.06162   0.00000  -0.52932
  16        3PX         0.00419   0.19045   0.07021   0.00000  -0.00184
  17        3PY        -0.12218   0.03307   0.00862   0.00000   0.00069
  18        3PZ         0.00000   0.00000   0.00000   0.25465   0.00000
  19 3   O  1S          0.03608  -0.05529  -0.01735   0.00000   0.00022
  20        2S         -0.01664   0.02030  -0.00492   0.00000   0.00027
  21        2PX         0.11380  -0.03592  -0.05751   0.00000  -0.00150
  22        2PY         0.08799  -0.06991   0.05795   0.00000   0.01487
  23        2PZ         0.00000   0.00000   0.00000   0.09433   0.00000
  24        3S         -0.09527   0.12086   0.00541   0.00000  -0.00042
  25        3PX         0.08412  -0.03628  -0.04542   0.00000   0.00568
  26        3PY         0.11043  -0.05821   0.06867   0.00000   0.00534
  27        3PZ         0.00000   0.00000   0.00000   0.08807   0.00000
  28 4   C  1S          0.04155   0.03367  -0.00285   0.00000  -0.00245
  29        2S          0.01022   0.00500  -0.00411   0.00000   0.00268
  30        2PX        -0.22987  -0.13115   0.05198   0.00000  -0.00627
  31        2PY         0.06617   0.02543  -0.01873   0.00000   0.00941
  32        2PZ         0.00000   0.00000   0.00000  -0.00493   0.00000
  33        3S         -0.07750  -0.11339  -0.00575   0.00000   0.01393
  34        3PX        -0.10483  -0.05622   0.03320   0.00000  -0.00984
  35        3PY         0.03699  -0.00176  -0.01461   0.00001  -0.01060
  36        3PZ         0.00000   0.00001   0.00000  -0.02307   0.00000
  37 5   H  1S         -0.05514  -0.02802   0.01307  -0.01131  -0.00389
  38        2S         -0.05903  -0.02160   0.01549  -0.02028  -0.00634
  39 6   H  1S         -0.05514  -0.02801   0.01307   0.01130  -0.00389
  40        2S         -0.05904  -0.02159   0.01549   0.02028  -0.00634
  41 7   H  1S         -0.05585  -0.04657   0.00749   0.00000   0.00562
  42        2S         -0.06834  -0.03007   0.01164   0.00000   0.00283
  43 8   H  1S         -0.04996   0.01592   0.04646   0.00000   0.00707
  44        2S         -0.02195   0.01512   0.01783   0.00000  -0.00438
                          11        12        13        14        15
  11        2S          0.13065
  12        2PX        -0.00455   0.52366
  13        2PY         0.03530   0.02960   0.37155
  14        2PZ         0.00000   0.00000   0.00000   0.34365
  15        3S          0.38869  -0.03816   0.18218   0.00000   1.46927
  16        3PX        -0.00273   0.57962   0.03822   0.00000  -0.02866
  17        3PY         0.03191   0.03789   0.39345   0.00000   0.15093
  18        3PZ         0.00000   0.00000   0.00000   0.40273   0.00000
  19 3   O  1S          0.00209  -0.02104  -0.00834   0.00000  -0.01121
  20        2S         -0.00140   0.00184   0.00565   0.00000   0.01218
  21        2PX        -0.00190   0.02053   0.01827   0.00000   0.01047
  22        2PY        -0.00634   0.05403   0.06235   0.00000  -0.10078
  23        2PZ         0.00000   0.00000   0.00000  -0.07712   0.00000
  24        3S         -0.00488   0.16729   0.04947   0.00000   0.04968
  25        3PX         0.00012   0.05515   0.04564   0.00000   0.01523
  26        3PY        -0.00543   0.10859   0.08053   0.00000  -0.10572
  27        3PZ         0.00000   0.00000   0.00000  -0.12379   0.00000
  28 4   C  1S          0.00219   0.02209  -0.00656   0.00000   0.00723
  29        2S         -0.00325  -0.00794   0.00566   0.00000  -0.01060
  30        2PX         0.00792   0.05094  -0.02621   0.00000   0.03059
  31        2PY        -0.00765  -0.03977   0.01397   0.00000  -0.04003
  32        2PZ         0.00000   0.00000   0.00000  -0.02469   0.00000
  33        3S         -0.00858  -0.23414   0.03073   0.00000  -0.02810
  34        3PX         0.00171   0.10624  -0.05771   0.00001   0.00200
  35        3PY        -0.00341  -0.06139  -0.00755   0.00001  -0.01919
  36        3PZ         0.00000   0.00001   0.00001  -0.02867   0.00000
  37 5   H  1S          0.00249   0.01535  -0.01001  -0.02481   0.01410
  38        2S          0.00343   0.03628  -0.01488  -0.04622   0.01785
  39 6   H  1S          0.00249   0.01536  -0.01002   0.02480   0.01410
  40        2S          0.00343   0.03630  -0.01488   0.04622   0.01786
  41 7   H  1S         -0.00318  -0.02071   0.00661   0.00001  -0.01658
  42        2S          0.00502   0.02541   0.04031   0.00000   0.01751
  43 8   H  1S         -0.00137  -0.00049   0.01641   0.00000  -0.02768
  44        2S          0.00459  -0.03690   0.01378   0.00000   0.00742
                          16        17        18        19        20
  16        3PX         0.64753
  17        3PY         0.04716   0.42059
  18        3PZ         0.00000   0.00000   0.47429
  19 3   O  1S         -0.01121   0.00090   0.00000   2.05656
  20        2S          0.00069  -0.00018   0.00000   0.08019   0.12545
  21        2PX         0.03823   0.01979   0.00000  -0.00374  -0.00144
  22        2PY         0.06624   0.09591   0.00000   0.04267  -0.04218
  23        2PZ         0.00000   0.00000  -0.12321   0.00000   0.00000
  24        3S          0.18335   0.02899   0.00000  -0.50197   0.36912
  25        3PX         0.07967   0.04981   0.00000  -0.02081   0.00609
  26        3PY         0.12689   0.11943   0.00000   0.00818  -0.04151
  27        3PZ         0.00000   0.00000  -0.18340   0.00000   0.00000
  28 4   C  1S          0.02454  -0.00756   0.00000  -0.00458   0.00307
  29        2S         -0.01303   0.00582   0.00000   0.00227  -0.00218
  30        2PX         0.08819  -0.03021   0.00000  -0.01898   0.01335
  31        2PY        -0.05926   0.02135   0.00000  -0.00134   0.00141
  32        2PZ         0.00000   0.00000  -0.03425   0.00000   0.00000
  33        3S         -0.26435   0.03326   0.00000   0.04523  -0.02601
  34        3PX         0.13685  -0.06202   0.00001  -0.01929   0.01235
  35        3PY        -0.07851  -0.00339   0.00001   0.02014  -0.00661
  36        3PZ         0.00001   0.00001  -0.03502   0.00000   0.00000
  37 5   H  1S          0.02485  -0.01362  -0.03180   0.00148  -0.00100
  38        2S          0.04984  -0.01887  -0.05771  -0.00224   0.00207
  39 6   H  1S          0.02486  -0.01362   0.03179   0.00149  -0.00100
  40        2S          0.04987  -0.01887   0.05772  -0.00224   0.00207
  41 7   H  1S         -0.02014   0.00990   0.00001  -0.00860   0.00524
  42        2S          0.03519   0.04463   0.00000  -0.01619   0.01021
  43 8   H  1S         -0.00981   0.02234   0.00000  -0.02594   0.03183
  44        2S         -0.04996   0.01612   0.00000   0.01294   0.00004
                          21        22        23        24        25
  21        2PX         0.32237
  22        2PY        -0.02835   0.42859
  23        2PZ         0.00000   0.00000   0.51144
  24        3S          0.04851  -0.16040   0.00000   1.41773
  25        3PX         0.32008  -0.00502   0.00000   0.09175   0.32546
  26        3PY        -0.02348   0.49587   0.00000  -0.13332   0.00708
  27        3PZ         0.00000   0.00000   0.60573   0.00000   0.00000
  28 4   C  1S          0.01304   0.00284   0.00000   0.02352   0.01736
  29        2S         -0.01053  -0.00607   0.00000  -0.01547  -0.01412
  30        2PX         0.04786   0.01697   0.00000   0.10365   0.07203
  31        2PY        -0.00201  -0.00644   0.00000  -0.00443  -0.00375
  32        2PZ         0.00000   0.00000  -0.01314   0.00000   0.00000
  33        3S         -0.08640   0.01717   0.00000  -0.18426  -0.10367
  34        3PX         0.05872   0.00647   0.00000   0.10341   0.07528
  35        3PY        -0.00916  -0.00891  -0.00001  -0.04338  -0.01284
  36        3PZ         0.00001   0.00000  -0.05736   0.00001   0.00001
  37 5   H  1S         -0.00380   0.00124  -0.01037   0.00129  -0.00238
  38        2S          0.00554  -0.00418   0.01858   0.02332   0.01006
  39 6   H  1S         -0.00380   0.00124   0.01037   0.00129  -0.00239
  40        2S          0.00554  -0.00418  -0.01859   0.02332   0.01006
  41 7   H  1S          0.01702   0.00490   0.00000   0.02891   0.02375
  42        2S          0.03639   0.01080   0.00001   0.06622   0.04949
  43 8   H  1S         -0.20103   0.10976   0.00000   0.07554  -0.19071
  44        2S         -0.13695   0.03871   0.00000  -0.03916  -0.13754
                          26        27        28        29        30
  26        3PY         0.57974
  27        3PZ         0.00000   0.72061
  28 4   C  1S          0.00727   0.00000   2.03949
  29        2S         -0.00750   0.00000   0.11788   0.10044
  30        2PX         0.02142   0.00000  -0.00819   0.00513   0.26047
  31        2PY        -0.00691   0.00000   0.00007  -0.00001   0.00838
  32        2PZ         0.00000  -0.01619   0.00000   0.00001   0.00000
  33        3S         -0.00525   0.00000  -0.44878   0.24246   0.04433
  34        3PX         0.01610   0.00000   0.01148   0.00147   0.17811
  35        3PY        -0.01390  -0.00002  -0.00754   0.00164   0.02260
  36        3PZ         0.00000  -0.06707   0.00000   0.00000   0.00000
  37 5   H  1S          0.00059  -0.01156  -0.05278   0.04970   0.03605
  38        2S         -0.00353   0.02477   0.02583   0.00664   0.04081
  39 6   H  1S          0.00059   0.01156  -0.05277   0.04969   0.03603
  40        2S         -0.00354  -0.02478   0.02582   0.00664   0.04080
  41 7   H  1S          0.00523   0.00000  -0.05518   0.05118   0.11669
  42        2S          0.01684   0.00001   0.02672   0.00614   0.10543
  43 8   H  1S          0.12525   0.00000  -0.00781   0.00529  -0.02638
  44        2S          0.03900   0.00000  -0.00466   0.00575  -0.04807
                          31        32        33        34        35
  31        2PY         0.30537
  32        2PZ        -0.00001   0.29580
  33        3S          0.01033   0.00000   0.97694
  34        3PX         0.01721   0.00000  -0.02166   0.14166
  35        3PY         0.25603   0.00000   0.03236   0.02142   0.21972
  36        3PZ         0.00000   0.25775  -0.00002   0.00000   0.00001
  37 5   H  1S         -0.11873   0.17150   0.16361   0.01795  -0.09551
  38        2S         -0.10132   0.13734   0.00316   0.02682  -0.08275
  39 6   H  1S         -0.11878  -0.17145   0.16359   0.01794  -0.09556
  40        2S         -0.10138  -0.13733   0.00318   0.02682  -0.08280
  41 7   H  1S          0.17741  -0.00004   0.19078   0.08178   0.15685
  42        2S          0.13058  -0.00004   0.01310   0.07630   0.11153
  43 8   H  1S          0.00029   0.00000   0.05059  -0.03489  -0.00039
  44        2S          0.00647   0.00000   0.04939  -0.04877   0.00729
                          36        37        38        39        40
  36        3PZ         0.22933
  37 5   H  1S          0.15015   0.18214
  38        2S          0.11879   0.12821   0.11015
  39 6   H  1S         -0.15012  -0.01743  -0.03279   0.18212
  40        2S         -0.11878  -0.03279  -0.02556   0.12823   0.11019
  41 7   H  1S         -0.00004  -0.02207  -0.03922  -0.02207  -0.03922
  42        2S         -0.00003  -0.03565  -0.02611  -0.03565  -0.02612
  43 8   H  1S          0.00000   0.00186  -0.00504   0.00186  -0.00504
  44        2S          0.00000  -0.00398  -0.01049  -0.00398  -0.01050
                          41        42        43        44
  41 7   H  1S          0.18199
  42        2S          0.12070   0.10320
  43 8   H  1S         -0.00868  -0.01673   0.16111
  44        2S         -0.01352  -0.02220   0.09291   0.06556
    Full Mulliken population analysis:
                           1         2         3         4         5
   1 1   C  1S          2.03320
   2        2S          0.01509   0.14732
   3        2PX         0.00000   0.00000   0.28706
   4        2PY         0.00000   0.00000   0.00000   0.30565
   5        2PZ         0.00000   0.00000   0.00000   0.00000   0.16189
   6        3S         -0.04917   0.16037   0.00000   0.00000   0.00000
   7        3PX         0.00000   0.00000   0.08994   0.00000   0.00000
   8        3PY         0.00000   0.00000   0.00000   0.01583   0.00000
   9        3PZ         0.00000   0.00000   0.00000   0.00000   0.09199
  10 2   O  1S          0.00000  -0.00003  -0.00003  -0.00046   0.00000
  11        2S          0.00000   0.00036   0.00031   0.00378   0.00000
  12        2PX        -0.00001   0.00038   0.00070   0.00396   0.00000
  13        2PY        -0.00018   0.01142   0.00387   0.04250   0.00000
  14        2PZ         0.00000   0.00000   0.00000   0.00000   0.00737
  15        3S         -0.00027  -0.00489   0.00096   0.01894   0.00000
  16        3PX         0.00006   0.00053  -0.00031   0.01143   0.00000
  17        3PY        -0.00947   0.05176   0.01013   0.09213   0.00000
  18        3PZ         0.00000   0.00000   0.00000   0.00000   0.04414
  19 3   O  1S          0.00000  -0.00001  -0.00010  -0.00006   0.00000
  20        2S          0.00000   0.00006   0.00094   0.00069   0.00000
  21        2PX        -0.00001   0.00174   0.00544   0.00601   0.00000
  22        2PY        -0.00001   0.00182   0.00664   0.00404   0.00000
  23        2PZ         0.00000   0.00000   0.00000   0.00000   0.00096
  24        3S          0.00006  -0.00157   0.01359   0.00529   0.00000
  25        3PX        -0.00135   0.00870   0.01637   0.02618   0.00000
  26        3PY        -0.00279   0.01583   0.03026   0.01110   0.00000
  27        3PZ         0.00000   0.00000   0.00000   0.00000   0.00674
  28 4   C  1S          0.00000  -0.00004  -0.00023  -0.00003   0.00000
  29        2S         -0.00003   0.00103   0.00455   0.00049   0.00000
  30        2PX        -0.00035   0.00739   0.02929   0.00476   0.00000
  31        2PY        -0.00003   0.00066   0.00363  -0.00020   0.00000
  32        2PZ         0.00000   0.00000   0.00000   0.00000   0.00081
  33        3S          0.00092   0.00556   0.01936   0.00433   0.00000
  34        3PX         0.00027   0.01035   0.02736   0.00953   0.00000
  35        3PY        -0.00014   0.00198   0.00433   0.00059   0.00000
  36        3PZ         0.00000   0.00000   0.00000   0.00000   0.00121
  37 5   H  1S          0.00000  -0.00001  -0.00007  -0.00003   0.00001
  38        2S          0.00020  -0.00126  -0.00280  -0.00107  -0.00015
  39 6   H  1S          0.00000  -0.00001  -0.00007  -0.00003   0.00001
  40        2S          0.00020  -0.00126  -0.00280  -0.00107  -0.00015
  41 7   H  1S          0.00000  -0.00001  -0.00008   0.00000   0.00000
  42        2S          0.00026  -0.00201  -0.00321  -0.00008   0.00000
  43 8   H  1S          0.00000  -0.00007  -0.00042  -0.00006   0.00000
  44        2S          0.00018  -0.00112  -0.00611  -0.00032   0.00000
                           6         7         8         9        10
   6        3S          0.46246
   7        3PX         0.00000   0.19195
   8        3PY         0.00000   0.00000   0.03926
   9        3PZ         0.00000   0.00000   0.00000   0.19193
  10 2   O  1S          0.00265   0.00023   0.00459   0.00000   2.06091
  11        2S         -0.00557   0.00010  -0.00347   0.00000   0.01610
  12        2PX         0.00084   0.01817   0.00261   0.00000   0.00000
  13        2PY         0.01393   0.00149  -0.00035   0.00000   0.00000
  14        2PZ         0.00000   0.00000   0.00000   0.02348   0.00000
  15        3S         -0.07566  -0.00081  -0.03715   0.00000  -0.09691
  16        3PX         0.00042   0.07520   0.00939   0.00000   0.00000
  17        3PY         0.05332   0.00442  -0.00140   0.00000   0.00000
  18        3PZ         0.00000   0.00000   0.00000   0.10830   0.00000
  19 3   O  1S          0.00102   0.00268   0.00079   0.00000   0.00000
  20        2S         -0.00253  -0.00475   0.00107   0.00000   0.00000
  21        2PX         0.00775   0.00102   0.00571   0.00000   0.00000
  22        2PY         0.00560   0.00695  -0.00086   0.00000   0.00000
  23        2PZ         0.00000   0.00000   0.00000   0.00735   0.00000
  24        3S         -0.03452  -0.05022  -0.00210   0.00000   0.00000
  25        3PX         0.02531   0.00003   0.01463   0.00000   0.00000
  26        3PY         0.03102   0.01876   0.00297   0.00000   0.00000
  27        3PZ         0.00000   0.00000   0.00000   0.03031   0.00000
  28 4   C  1S          0.00150   0.00290   0.00008   0.00000   0.00000
  29        2S          0.00214   0.00201   0.00051   0.00000   0.00000
  30        2PX         0.03938   0.02624   0.00541   0.00000   0.00000
  31        2PY         0.00348   0.00265  -0.00201   0.00000   0.00000
  32        2PZ         0.00000   0.00000   0.00000  -0.00069   0.00000
  33        3S         -0.03381  -0.06091   0.00095   0.00000   0.00003
  34        3PX         0.05632   0.01265   0.00674   0.00000   0.00006
  35        3PY         0.00610  -0.00036  -0.00547   0.00000  -0.00006
  36        3PZ         0.00000   0.00000   0.00000  -0.01007   0.00000
  37 5   H  1S         -0.00265  -0.00305  -0.00089  -0.00065   0.00000
  38        2S         -0.01240  -0.00610  -0.00273  -0.00301   0.00000
  39 6   H  1S         -0.00265  -0.00305  -0.00089  -0.00065   0.00000
  40        2S         -0.01240  -0.00610  -0.00273  -0.00301   0.00000
  41 7   H  1S         -0.00269  -0.00643   0.00020   0.00000   0.00000
  42        2S         -0.01435  -0.01077   0.00081   0.00000   0.00001
  43 8   H  1S         -0.00365  -0.00300  -0.00246   0.00000   0.00000
  44        2S         -0.00590  -0.00624  -0.00207   0.00000  -0.00001
                          11        12        13        14        15
  11        2S          0.13065
  12        2PX         0.00000   0.52366
  13        2PY         0.00000   0.00000   0.37155
  14        2PZ         0.00000   0.00000   0.00000   0.34365
  15        3S          0.28764   0.00000   0.00000   0.00000   1.46927
  16        3PX         0.00000   0.28910   0.00000   0.00000   0.00000
  17        3PY         0.00000   0.00000   0.19624   0.00000   0.00000
  18        3PZ         0.00000   0.00000   0.00000   0.20087   0.00000
  19 3   O  1S          0.00000   0.00000   0.00000   0.00000   0.00000
  20        2S          0.00000   0.00000   0.00000   0.00000   0.00003
  21        2PX         0.00000   0.00000   0.00000   0.00000   0.00001
  22        2PY         0.00000   0.00000   0.00000   0.00000  -0.00035
  23        2PZ         0.00000   0.00000   0.00000   0.00000   0.00000
  24        3S         -0.00001  -0.00020  -0.00017   0.00000   0.00132
  25        3PX         0.00000  -0.00002  -0.00023   0.00000   0.00036
  26        3PY        -0.00005  -0.00054  -0.00104   0.00000  -0.00713
  27        3PZ         0.00000   0.00000   0.00000  -0.00017   0.00000
  28 4   C  1S          0.00000   0.00000   0.00000   0.00000   0.00000
  29        2S          0.00000   0.00000   0.00000   0.00000  -0.00006
  30        2PX         0.00000  -0.00001   0.00000   0.00000  -0.00023
  31        2PY         0.00000  -0.00001   0.00000   0.00000  -0.00029
  32        2PZ         0.00000   0.00000   0.00000   0.00000   0.00000
  33        3S         -0.00012  -0.00243  -0.00031   0.00000  -0.00175
  34        3PX        -0.00006  -0.00213  -0.00150   0.00000  -0.00024
  35        3PY        -0.00012  -0.00160   0.00013   0.00000  -0.00220
  36        3PZ         0.00000   0.00000   0.00000  -0.00020   0.00000
  37 5   H  1S          0.00000   0.00000   0.00000   0.00000   0.00000
  38        2S          0.00001   0.00005   0.00002  -0.00003   0.00023
  39 6   H  1S          0.00000   0.00000   0.00000   0.00000   0.00000
  40        2S          0.00001   0.00005   0.00002  -0.00003   0.00023
  41 7   H  1S          0.00000   0.00000   0.00000   0.00000  -0.00004
  42        2S          0.00006   0.00030  -0.00016   0.00000   0.00097
  43 8   H  1S          0.00000   0.00000   0.00000   0.00000  -0.00012
  44        2S          0.00009   0.00044  -0.00018   0.00000   0.00055
                          16        17        18        19        20
  16        3PX         0.64753
  17        3PY         0.00000   0.42059
  18        3PZ         0.00000   0.00000   0.47429
  19 3   O  1S          0.00000   0.00000   0.00000   2.05656
  20        2S          0.00000   0.00000   0.00000   0.01678   0.12545
  21        2PX        -0.00001  -0.00010   0.00000   0.00000   0.00000
  22        2PY        -0.00033  -0.00124   0.00000   0.00000   0.00000
  23        2PZ         0.00000   0.00000  -0.00017   0.00000   0.00000
  24        3S         -0.00430  -0.00196   0.00000  -0.09190   0.27315
  25        3PX         0.00046  -0.00297   0.00000   0.00000   0.00000
  26        3PY        -0.00758  -0.01735   0.00000   0.00000   0.00000
  27        3PZ         0.00000   0.00000  -0.00486   0.00000   0.00000
  28 4   C  1S          0.00002   0.00000   0.00000   0.00000   0.00000
  29        2S         -0.00019  -0.00008   0.00000   0.00000   0.00000
  30        2PX        -0.00150  -0.00060   0.00000   0.00000   0.00000
  31        2PY        -0.00118  -0.00033   0.00000   0.00000   0.00000
  32        2PZ         0.00000   0.00000  -0.00013   0.00000   0.00000
  33        3S         -0.02286  -0.00276   0.00000   0.00006  -0.00024
[...]
   2   8     0.00   0.00   0.00    -0.21  -0.38   0.00     0.00   0.00   0.00
   3   8     0.00   0.00   0.00    -0.03  -0.05   0.00     0.00   0.00   0.00
   4   6     0.00   0.00   0.05    -0.05  -0.04   0.00    -0.04  -0.03   0.00
   5   1    -0.38   0.30  -0.05    -0.17  -0.11   0.09     0.15   0.34   0.53
   6   1     0.38  -0.30  -0.05    -0.17  -0.11  -0.09     0.15   0.34  -0.53
   7   1     0.00   0.00  -0.72     0.22   0.14   0.00     0.20  -0.36   0.00
   8   1     0.00   0.00  -0.01    -0.05   0.39   0.00     0.00   0.00   0.00
                    16                     17                     18
                     A                      A                      A
 Frequencies --  3284.9677              3333.9728              3869.0298
 Red. masses --     1.0990                 1.1016                 1.0650
 Frc consts  --     6.9875                 7.2143                 9.3932
 IR Inten    --     2.8358                 4.7259                63.8484
 Raman Activ --    64.0047                54.5531               107.5521
 Depolar (P) --     0.7500                 0.6946                 0.3298
 Depolar (U) --     0.8571                 0.8197                 0.4960
 Atom AN      X      Y      Z        X      Y      Z        X      Y      Z
   1   6     0.00   0.00   0.00     0.00   0.00   0.00     0.00   0.00   0.00
   2   8     0.00   0.00   0.00     0.00   0.00   0.00     0.00   0.00   0.00
   3   8     0.00   0.00   0.00     0.00   0.00   0.00     0.06   0.01   0.00
   4   6     0.00   0.00   0.09    -0.03   0.09   0.00     0.00   0.00   0.00
   5   1    -0.18  -0.39  -0.56    -0.07  -0.14  -0.24     0.00   0.00   0.00
   6   1     0.18   0.39  -0.56    -0.07  -0.14   0.24     0.00   0.00   0.00
   7   1     0.00   0.00   0.02     0.45  -0.79   0.00     0.00   0.00   0.00
   8   1     0.00   0.00   0.00     0.00   0.00   0.00    -0.99  -0.12   0.00

 -------------------
 - Thermochemistry -
 -------------------
 Temperature   298.150 Kelvin.  Pressure   1.00000 Atm.
 Atom  1 has atomic number  6 and mass  12.00000
 Atom  2 has atomic number  8 and mass  15.99491
 Atom  3 has atomic number  8 and mass  15.99491
 Atom  4 has atomic number  6 and mass  12.00000
 Atom  5 has atomic number  1 and mass   1.00783
 Atom  6 has atomic number  1 and mass   1.00783
 Atom  7 has atomic number  1 and mass   1.00783
 Atom  8 has atomic number  1 and mass   1.00783
 Molecular mass:    60.02113 amu.
 Principal axes and moments of inertia in atomic units:
                           1         2         3
     EIGENVALUES --   159.33783 189.39186 337.72473
           X            0.99593  -0.09013   0.00000
           Y            0.09013   0.99593   0.00000
           Z            0.00000   0.00000   1.00000
 This molecule is an asymmetric top.
 Rotational symmetry number  1.
 Rotational temperatures (Kelvin)      0.54359     0.45733     0.25646
 Rotational constants (GHZ):          11.32651     9.52914     5.34382
 Zero-point vibrational energy     173211.0 (Joules/Mol)
                                   41.39843 (Kcal/Mol)
 Warning -- explicit consideration of   4 degrees of freedom as
           vibrations may cause significant error
 Vibrational temperatures:    178.56   625.17   836.32   885.76  1005.24
          (Kelvin)           1292.21  1588.48  1734.87  1848.20  2125.09
                             2259.49  2348.60  2365.98  2835.90  4645.23
                             4726.33  4796.84  5566.66
 
 Zero-point correction=                           0.065973 (Hartree/Particle)
 Thermal correction to Energy=                    0.070330
 Thermal correction to Enthalpy=                  0.071274
 Thermal correction to Gibbs Free Energy=         0.039234
 Sum of electronic and zero-point Energies=           -226.468265
 Sum of electronic and thermal Energies=              -226.463908
 Sum of electronic and thermal Enthalpies=            -226.462963
 Sum of electronic and thermal Free Energies=         -226.495004
 
                     E (Thermal)             CV                S
                      KCal/Mol        Cal/Mol-Kelvin    Cal/Mol-Kelvin
 Total                   44.133             13.569             67.435
 Electronic               0.000              0.000              0.000
 Translational            0.889              2.981             38.196
 Rotational               0.889              2.981             23.837
 Vibrational             42.355              7.607              5.401
 Vibration  1             0.610              1.929              3.035
 Vibration  2             0.795              1.395              0.844
 Vibration  3             0.938              1.072              0.483
 Vibration  4             0.975              0.999              0.424
                       Q            Log10(Q)             Ln(Q)
 Total Bot       0.899233D-18        -18.046128        -41.552745
 Total V=0       0.199113D+13         12.299099         28.319722
 Vib (Bot)       0.136142D-29        -29.866007        -68.769023
 Vib (Bot)  1    0.164501D+01          0.216169          0.497747
 Vib (Bot)  2    0.399575D+00         -0.398401         -0.917353
 Vib (Bot)  3    0.261818D+00         -0.582000         -1.340104
 Vib (Bot)  4    0.238638D+00         -0.622261         -1.432808
 Vib (V=0)       0.301453D+01          0.479220          1.103444
 Vib (V=0)  1    0.221932D+01          0.346220          0.797201
 Vib (V=0)  2    0.114005D+01          0.056923          0.131070
 Vib (V=0)  3    0.106440D+01          0.027105          0.062412
 Vib (V=0)  4    0.105403D+01          0.022853          0.052620
 Electronic      0.100000D+01          0.000000          0.000000
 Translational   0.182773D+08          7.261911         16.721169
 Rotational      0.361383D+05          4.557968         10.495109
 ***** Axes restored to original set *****
 -------------------------------------------------------------------
 Center     Atomic                   Forces (Hartrees/Bohr)
 Number     Number              X              Y              Z
 -------------------------------------------------------------------
    1          6           0.000015113   -0.000062769   -0.000149165
    2          8           0.000088985    0.000022399    0.000066140
    3          8           0.000079360    0.000017317    0.000197183
    4          6          -0.000112085    0.000021485    0.000031325
    5          1          -0.000028921   -0.000013460   -0.000015544
    6          1          -0.000021594    0.000012843   -0.000010552
    7          1          -0.000041779    0.000001353   -0.000055899
    8          1           0.000020922    0.000000833   -0.000063487
 -------------------------------------------------------------------
 Cartesian Forces:  Max     0.000197183 RMS     0.000067713

 GradGradGradGradGradGradGradGradGradGradGradGradGradGradGradGradGradGrad
 Berny optimization.
 Internal  Forces:  Max     0.000198248 RMS     0.000070692
 Search for a local minimum.
 Step number   1 out of a maximum of   2
 All quantities printed in internal units (Hartrees-Bohrs-Radians)
 Second derivative matrix not updated -- analytic derivatives used.
     Eigenvalues ---    0.00098   0.02012   0.05353   0.06643   0.06722
     Eigenvalues ---    0.14748   0.15261   0.17079   0.17672   0.23674
     Eigenvalues ---    0.28713   0.37691   0.37758   0.38355   0.39297
     Eigenvalues ---    0.46729   0.54442   0.993301000.000001000.00000
     Eigenvalues --- 1000.000001000.000001000.000001000.000001000.00000
 Angle between quadratic step and forces=  29.08 degrees.
 Linear search not attempted -- first point.
 Iteration  1 RMS(Cart)=  0.00036643 RMS(Int)=  0.00000004
 Iteration  2 RMS(Cart)=  0.00000005 RMS(Int)=  0.00000002
 Variable       Old X    -DE/DX   Delta X   Delta X   Delta X     New X
                                 (Linear)    (Quad)   (Total)
    R1        2.27052   0.00007   0.00000   0.00011   0.00011   2.27063
    R2        2.57032   0.00000   0.00000  -0.00012  -0.00012   2.57020
    R3        2.82946   0.00020   0.00000   0.00048   0.00048   2.82994
    R4        1.83062  -0.00002   0.00000  -0.00007  -0.00007   1.83055
    R5        2.04583   0.00000   0.00000   0.00001   0.00001   2.04584
    R6        2.04583   0.00000   0.00000   0.00001   0.00001   2.04584
    R7        2.03684   0.00000   0.00000  -0.00002  -0.00002   2.03682
    A1        2.13120  -0.00017   0.00000  -0.00038  -0.00038   2.13081
    A2        2.22459   0.00002   0.00000   0.00000   0.00000   2.22459
    A3        1.92740   0.00014   0.00000   0.00038   0.00038   1.92778
    A4        1.95013   0.00012   0.00000   0.00048   0.00048   1.95060
    A5        1.90824   0.00003   0.00000   0.00010   0.00010   1.90833
    A6        1.90825   0.00001   0.00000   0.00009   0.00009   1.90833
    A7        1.91432   0.00009   0.00000   0.00043   0.00043   1.91474
    A8        1.88018  -0.00004   0.00000  -0.00024  -0.00024   1.87994
    A9        1.92622  -0.00005   0.00000  -0.00019  -0.00019   1.92603
   A10        1.92622  -0.00005   0.00000  -0.00019  -0.00019   1.92603
    D1       -0.00017   0.00001   0.00000   0.00017   0.00017   0.00000
    D2       -3.14141  -0.00001   0.00000  -0.00018  -0.00018  -3.14159
    D3        2.11449   0.00000   0.00000  -0.00005  -0.00005   2.11443
    D4       -2.11420  -0.00002   0.00000  -0.00024  -0.00024  -2.11443
    D5        0.00015  -0.00001   0.00000  -0.00015  -0.00015   0.00000
    D6       -1.02748   0.00002   0.00000   0.00032   0.00032  -1.02716
    D7        1.02702   0.00000   0.00000   0.00014   0.00014   1.02716
    D8        3.14136   0.00001   0.00000   0.00023   0.00023   3.14159
         Item               Value     Threshold  Converged?
 Maximum Force            0.000198     0.000450     YES
 RMS     Force            0.000071     0.000300     YES
 Maximum Displacement     0.000751     0.001800     YES
 RMS     Displacement     0.000366     0.001200     YES
 Predicted change in Energy=-1.850411D-07
 Optimization completed.
    -- Stationary point found.
                           ----------------------------
                           !   Optimized Parameters   !
                           ! (Angstroms and Degrees)  !
 --------------------------                            --------------------------
 ! Name  Definition              Value          Derivative Info.                !
 --------------------------------------------------------------------------------
 ! R1    R(1,2)                  1.2015         -DE/DX =    0.0001              !
 ! R2    R(1,3)                  1.3602         -DE/DX =    0.0                 !
 ! R3    R(1,4)                  1.4973         -DE/DX =    0.0002              !
 ! R4    R(3,8)                  0.9687         -DE/DX =    0.0                 !
 ! R5    R(4,5)                  1.0826         -DE/DX =    0.0                 !
 ! R6    R(4,6)                  1.0826         -DE/DX =    0.0                 !
 ! R7    R(4,7)                  1.0778         -DE/DX =    0.0                 !
 ! A1    A(2,1,3)              122.1086         -DE/DX =   -0.0002              !
 ! A2    A(2,1,4)              127.4595         -DE/DX =    0.0                 !
 ! A3    A(3,1,4)              110.4318         -DE/DX =    0.0001              !
 ! A4    A(1,3,8)              111.734          -DE/DX =    0.0001              !
 ! A5    A(1,4,5)              109.334          -DE/DX =    0.0                 !
 ! A6    A(1,4,6)              109.3346         -DE/DX =    0.0                 !
 ! A7    A(1,4,7)              109.6823         -DE/DX =    0.0001              !
 ! A8    A(5,4,6)              107.7264         -DE/DX =    0.0                 !
 ! A9    A(5,4,7)              110.3641         -DE/DX =   -0.0001              !
 ! A10   A(6,4,7)              110.3643         -DE/DX =    0.0                 !
 ! D1    D(2,1,3,8)             -0.01           -DE/DX =    0.0                 !
 ! D2    D(4,1,3,8)           -179.9897         -DE/DX =    0.0                 !
 ! D3    D(2,1,4,5)            121.1512         -DE/DX =    0.0                 !
 ! D4    D(2,1,4,6)           -121.1345         -DE/DX =    0.0                 !
 ! D5    D(2,1,4,7)              0.0086         -DE/DX =    0.0                 !
 ! D6    D(3,1,4,5)            -58.8704         -DE/DX =    0.0                 !
 ! D7    D(3,1,4,6)             58.8438         -DE/DX =    0.0                 !
 ! D8    D(3,1,4,7)            179.9869         -DE/DX =    0.0                 !
 --------------------------------------------------------------------------------
 GradGradGradGradGradGradGradGradGradGradGradGradGradGradGradGradGradGrad

 1|1|UNPC-UNK|Freq|RHF|3-21G|C2H4O2|PCUSER|14-Jun-2004|0||#N GEOM=ALLCH
 ECK GUESS=READ SCRF=CHECK GENCHK RHF/3-21G FREQ||Acetic Acid||0,1|C,0.
 0226686877,0.0001123922,0.1616191972|O,0.1031492446,-0.000118852,1.360
 4275752|O,1.1237627279,0.0000528014,-0.6368860658|C,-1.2241788679,-0.0
 000045673,-0.6673744959|H,-1.2302721724,0.8743762779,-1.3056974051|H,-
 1.2300159482,-0.8742723901,-1.3058538801|H,-2.0883838957,-0.0001874648
 ,-0.0232410832|H,1.9424373173,-0.0000349676,-0.1190079138||Version=x86
 -Win32-G03RevB.05|State=1-A|HF=-226.5342372|RMSD=8.723e-010|RMSF=6.771
 e-005|Dipole=-0.0110019,0.0001098,-0.6491801|DipoleDeriv=1.6554514,0.0
 000149,-0.1204238,0.0000068,0.4614411,-0.0000325,-0.2974938,-0.0000291
 ,1.53539,-0.771321,0.0000064,-0.160599,-0.0000213,-0.4303177,0.0001138
 ,0.0921927,-0.0000034,-1.1310896,-1.1820578,-0.0000575,0.4293242,0.000
 0379,-0.5822785,-0.0000477,0.3647945,0.0000125,-0.6843852,-0.1852964,0
 .0000144,-0.1408255,-0.0000676,-0.003373,-0.0000672,-0.1193827,-0.0000
 165,-0.1209779,0.0953375,-0.0281376,0.0069545,0.0006222,0.0078505,0.08
 39541,-0.0003499,0.0746564,0.066129,0.0953103,0.02816,0.0069691,-0.000
 5819,0.0079117,-0.0839414,-0.0003194,-0.0746549,0.0661148,-0.018705,-0
 .0000137,0.0381233,-0.0000257,0.0987474,0.0000077,0.0819591,0.0000191,
 0.0227819,0.311281,0.0000131,-0.0595228,0.0000295,0.4400185,0.0000131,
 -0.1214004,0.0000159,0.2460369|Polar=24.6298175,-0.0003183,14.8665315,
 0.6482731,-0.0016504,26.2415416|PolarDeriv=1.0841888,0.0011473,1.89414
 96,-0.4929439,0.000713,-0.7421995,0.0009598,0.3553848,0.0032291,0.0001
 131,-2.4435584,0.0004581,5.1585304,0.0003955,-0.5513149,-0.0132925,0.0
 016412,-4.9024739,0.3009068,-0.0006315,-0.3451246,3.6927815,-0.0001077
 ,0.4100529,-0.0003088,-0.0416152,-0.0018765,-0.0000189,3.7843498,-0.00
 06747,0.0383229,-0.000104,0.2120278,0.2420729,-0.0016115,11.5666911,-3
 .0789885,0.0001375,-0.2182217,-1.8997523,-0.0001045,0.6625151,0.000081
 6,0.1017602,-0.000273,0.0000892,-1.1341541,0.0000823,-6.8228782,0.0003
 289,0.3586757,0.231866,0.0001814,-3.9671078,-0.4632739,-0.0002293,-0.9
 624417,-2.8309291,-0.0016277,0.7804688,-0.0000277,1.1680464,-0.0019552
 ,-0.0011227,5.6154169,0.0009984,-5.4680706,-0.001372,3.6008456,1.61478
 47,0.000343,2.3396967,-0.5174435,2.0096258,0.1067196,-0.914563,0.04099
 62,-0.2170752,0.7844682,-0.6977433,5.200272,0.4429207,-3.3628704,1.454
 3477,0.0850448,0.2586019,-1.5845629,-0.8909812,2.5314634,-4.3913984,-0
 .5158593,-2.0091307,0.1070884,-0.9144578,-0.0401781,-0.2166214,-0.7843
 892,-0.6969327,-5.1986231,-0.442267,-3.3631388,-1.4549871,0.0848756,-0
 .258025,-1.5846412,-0.8903894,-2.5314709,-4.3924425,-6.1174053,-0.0006
 179,-0.3887667,2.326835,0.0003218,-0.7496064,-0.0003349,-2.1442925,-0.
 0006387,0.0003672,0.4470501,-0.0002059,2.4401697,0.0004038,-0.3334139,
 -2.3501663,-0.0004792,2.750592,9.3078749,-0.0003013,-0.1934028,1.03302
 96,-0.000013,0.0724657,-0.000449,1.9553921,-0.0001345,-0.0000816,0.456
 9049,-0.0000189,4.4840055,-0.000229,-0.1176164,2.056106,-0.0000673,0.9
 964426|HyperPolar=6.203688,0.0009647,-2.3268705,0.0124225,28.5485275,0
 .0061289,-29.446776,-18.5237082,0.0023563,-29.3208766|PG=C01 [X(C2H4O2
 )]|NImag=0||0.66776592,-0.00002589,0.27269321,0.07467324,-0.00013203,1
 .14946076,-0.13997188,0.00001493,-0.07055297,0.11658783,0.00001877,-0.
 08969613,0.00014412,-0.00001124,0.03457820,-0.07660770,0.00012280,-0.8
 5251166,0.04331691,-0.00015222,0.97111221,-0.27556935,0.00000181,0.089
 43089,0.00910157,-0.00000197,0.04569528,0.69764878,0.00001461,-0.07404
 292,-0.00000520,-0.00000858,0.03224220,0.00001607,-0.00004066,0.043571
 23,0.03323190,0.00001162,-0.17197050,0.07912817,0.00000498,-0.08286908
 ,0.08871516,-0.00003442,0.44254937,-0.17516757,0.00000790,-0.04576502,
 0.00543790,-0.00000779,-0.00241800,-0.04956223,-0.00000261,-0.01849524
 ,0.59162348,-0.00001311,-0.11515881,-0.00001228,0.00000545,0.03271226,
 0.00001735,-0.00000024,0.01360943,-0.00000335,-0.00000806,0.60880904,-
 0.04956874,0.00000435,-0.12376454,-0.04036087,0.00000235,-0.03324685,0
 .02600122,-0.00000386,0.01029755,-0.08243975,-0.00001216,0.62431723,0.
 00170791,0.03490208,-0.02255438,-0.00383764,-0.00402796,-0.00297716,-0
 .00021335,-0.00297125,0.00164143,-0.06072659,0.00063602,0.00106897,0.0
 6000138,-0.00125929,0.00322548,-0.00099066,-0.00031744,-0.00175785,-0.
 00151529,-0.00000848,0.00029364,-0.00063535,0.00164291,-0.24295151,0.1
 4017497,0.00014417,0.26533022,0.00125245,0.02130099,-0.01860397,-0.004
 21225,-0.00258430,-0.00132397,0.00149373,-0.00201378,0.00141748,-0.002
 00662,0.14075494,-0.15278120,0.00441990,-0.15427955,0.16840780,0.00171
 388,-0.03489731,-0.02256158,-0.00383758,0.00402903,-0.00297393,-0.0002
 1436,0.00297031,0.00164063,-0.06072277,-0.00058106,0.00111387,-0.00013
 979,0.00052820,0.00116804,0.06000148,0.00126072,0.00321785,0.00098951,
 0.00031678,-0.00175709,0.00151345,0.00000958,0.00029445,0.00063581,-0.
 00158859,-0.24290675,-0.14019290,-0.00051977,-0.02630232,-0.01966421,-
 0.00020900,0.26527957,0.00125758,-0.02129735,-0.01860837,-0.00421140,0
 .00258439,-0.00132080,0.00149545,0.00201491,0.00141844,-0.00196315,-0.
 14077475,-0.15283164,0.00116104,0.01965804,0.01507380,0.00436963,0.154
 29865,0.16846017,-0.02857321,-0.00000645,0.02830662,0.00582934,0.00000
 139,-0.00128006,-0.00701459,0.,-0.00468334,-0.24913724,-0.00004021,0.1
 3698377,0.00277795,-0.00097417,-0.00203624,0.00276836,0.00097427,-0.00
 203038,0.27425659,-0.00000157,-0.00364972,0.00000347,0.00000078,-0.000
 77989,-0.00000087,0.00000033,0.00184756,-0.00000029,-0.00004187,-0.058
 99390,0.00002830,-0.02742980,0.00200513,0.01707231,0.02742677,0.002016
 61,-0.01707046,0.00004521,0.05679254,-0.02303774,-0.00000532,0.0150029
 5,0.00255883,0.,0.00120149,-0.00549165,0.00000080,-0.00187297,0.149021
 27,0.00002970,-0.17013391,0.01709489,-0.00221803,-0.01215037,0.0170978
 9,0.00222537,-0.01215221,-0.15618079,-0.00003271,0.17947692,-0.0519057
 0,0.00000294,-0.03097681,0.01069046,-0.00000024,-0.00275533,-0.3741764
 6,0.00003820,-0.18117870,-0.00174499,0.00000123,0.00720152,0.00043013,
 0.00024410,-0.00007900,0.00043077,-0.00024398,-0.00007877,-0.00090720,
 0.00000014,-0.00106271,0.41718299,0.00000576,0.00341103,0.00000307,-0.
 00000068,-0.00554171,-0.00000129,0.00003965,-0.01781558,0.00002100,-0.
 00000189,0.00488023,-0.00000104,-0.00073350,0.00015720,-0.00058640,0.0
 0073307,0.00015767,0.00058657,-0.00000003,0.00076166,0.00000018,-0.000
 04239,0.01398950,0.03879900,-0.00000507,0.02099534,-0.00566643,0.00000
 068,-0.00104133,-0.24734007,0.00002549,-0.19897029,0.00406651,0.000000
 55,-0.00185664,0.00014531,-0.00019413,-0.00003956,0.00014546,0.0001943
 2,-0.00003939,0.00092042,0.00000024,0.00062810,0.20892981,-0.00002208,
 0.18032378||-0.00001511,0.00006277,0.00014917,-0.00008898,-0.00002240,
 -0.00006614,-0.00007936,-0.00001732,-0.00019718,0.00011209,-0.00002149
 ,-0.00003132,0.00002892,0.00001346,0.00001554,0.00002159,-0.00001284,0
 .00001055,0.00004178,-0.00000135,0.00005590,-0.00002092,-0.00000083,0.
 00006349|||@


 THE DIFFERENCE BETWEEN A NOOSE AND A HALO IS ONLY 12 INCHES.
 Job cpu time:  0 days  0 hours  0 minutes 11.0 seconds.
 File lengths (MBytes):  RWF=     12 Int=      0 D2E=      0 Chk=      7 Scr=      1
 Normal termination of Gaussian 03 at Mon Jun 14 14:57:38 2004.
