
 Distributed Data Interface kickoff program.
 Initiating 1 compute processes on 1 nodes to run the following command:
 C:\WinGAMESS/gamess.07.exe AcetyleneOpt 

          ******************************************************
          *         GAMESS VERSION = 24 MAR 2007 (R1)          *
          *             FROM IOWA STATE UNIVERSITY             *
          * M.W.SCHMIDT, K.K.BALDRIDGE, J.A.BOATZ, S.T.ELBERT, *
          *   M.S.GORDON, J.H.JENSEN, S.KOSEKI, N.MATSUNAGA,   *
          *          K.A.NGUYEN, S.J.SU, T.L.WINDUS,           *
          *       TOGETHER WITH M.DUPUIS, J.A.MONTGOMERY       *
          *         J.COMPUT.CHEM.  14, 1347-1363(1993)        *
          ******************* WINDOWS VERSION ******************

     SINCE 1993, STUDENTS AND POSTDOCS WORKING AT IOWA STATE UNIVERSITY
     AND ALSO IN THEIR VARIOUS JOBS AFTER LEAVING ISU HAVE MADE IMPORTANT
     CONTRIBUTIONS TO THE CODE:
     IVANA ADAMOVIC, CHRISTINE AIKENS, YURI ALEXEEV, POOJA ARORA, ROB BELL,
     PRADIPTA BANDYOPADHYAY, JONATHAN BENTZ, BRETT BODE, GALINA CHABAN,
     WEI CHEN, CHEOL HO CHOI, PAUL DAY, TIM DUDLEY, DMITRI FEDOROV,
     GRAHAM FLETCHER, MARK FREITAG, KURT GLAESEMANN, GRANT MERRILL,
     TAKESHI NAGATA, HEATHER NETZLOFF, BOSILJKA NJEGIC, RYAN OLSON,
     MIKE PAK, JIM SHOEMAKER, LYUDMILA SLIPCHENKO, JIE SONG,
     TETSUYA TAKETSUGU, SIMON WEBB.

     ADDITIONAL CODE HAS BEEN PROVIDED BY COLLABORATORS IN OTHER GROUPS:
     IOWA STATE UNIVERSITY: JOE IVANIC, KLAUS RUEDENBERG
     UNIVERSITY OF TOKYO: KIMIHIKO HIRAO, HARUYUKI NAKANO, TAKAHITO
          NAKAJIMA, TAKAO TSUNEDA, MUNEAKI KAMIYA, SUSUMU YANAGISAWA,
          KIYOSHI YAGI, MAHITO CHIBA, SEIKEN TOKURA, NAOAKI KAWAKAMI
     UNIVERSITY OF SOUTHERN DENMARK: FRANK JENSEN
     UNIVERSITY OF IOWA: VISVALDAS KAIRYS, HUI LI
     NATIONAL INST. OF STANDARDS AND TECHNOLOGY: WALT STEVENS, DAVID GARMER
     UNIVERSITY OF PISA: BENEDETTA MENNUCCI, JACOPO TOMASI
     UNIVERSITY OF MEMPHIS: HENRY KURTZ, PRAKASHAN KORAMBATH
     UNIVERSITY OF ALBERTA: MARIUSZ KLOBUKOWSKI
     UNIVERSITY OF NEW ENGLAND: MARK SPACKMAN
     MIE UNIVERSITY: HIROAKI UMEDA
     MICHIGAN STATE UNIVERSITY:
          KAROL KOWALSKI, MARTA WLOCH, PIOTR PIECUCH
     UNIVERSITY OF SILESIA: MONIKA MUSIAL, STANISLAW KUCHARSKI
     FACULTES UNIVERSITAIRES NOTRE-DAME DE LA PAIX:
          OLIVIER QUINET, BENOIT CHAMPAGNE
     UNIVERSITY OF CALIFORNIA - SANTA BARBARA: BERNARD KIRTMAN
     INSTITUTE FOR MOLECULAR SCIENCE: KAZUYA ISHIMURA AND SHIGERU NAGASE
     UNIVERSITY OF NOTRE DAME: DAN CHIPMAN
     KYUSHU UNIVERSITY:
          FENG LONG GU, JACEK KORCHOWIEC, MARCIN MAKOWSKI, AND YURIKO AOKI
     PENNSYLVANIA STATE UNIVERSITY:
          TZVETELIN IORDANOV, CHET SWALINA, SHARON HAMMES-SCHIFFER

 EXECUTION OF GAMESS BEGUN Sat Jul 14 13:11:59 2007

            ECHO OF THE FIRST FEW INPUT CARDS -
 INPUT CARD> $CONTRL RUNTYP=OPTIMIZE NZVAR=5 MPLEVL=2 COORD=UNIQUE $END                     
 INPUT CARD> $BASIS GBASIS=CCD $END                                                         
 INPUT CARD> $STATPT HSSEND=.TRUE. NSTEP=250 $END                                           
 INPUT CARD>  $SYSTEM BALTYP=LOOP TIMLIM=600 MWORDS=6.25 $END                               
 INPUT CARD> $FORCE  NVIB=2 PURIFY=.TRUE. PRTIFC=.TRUE. VIBANL=.TRUE. DECOMP=.TRUE.  $END   
 INPUT CARD> $DATA                                                                          
 INPUT CARD>Methane ccd basis                                                               
 INPUT CARD>DNH 4                                                                           
 INPUT CARD>                                                                                
 INPUT CARD>C        6.0        0.000000        0.000000        0.400000                    
 INPUT CARD>H        1.0        0.000000		0.000000	    1.300000                             
 INPUT CARD> $END                                                                           
 INPUT CARD> $ZMAT IZMAT(1)=                                                                
 INPUT CARD>1 1 2                                                                           
 INPUT CARD>1 1 3                                                                           
 INPUT CARD>1 2 4                                                                           
 INPUT CARD>5 3 1 2                                                                         
 INPUT CARD>5 4 2 3                                                                         
 INPUT CARD> $END                                                                           
 INPUT CARD> $LIBE APTS(1)=0.0,1.0,0.0,1.0,0.0,0.0 $END                                     
 INPUT CARD>                                                                                
 INPUT CARD>                                                                                
 INPUT CARD>                                                                                
 INPUT CARD>                                                                                
    1000000 WORDS OF MEMORY AVAILABLE

     BASIS OPTIONS
     -------------
     GBASIS=CCD          IGAUSS=       0      POLAR=NONE    
     NDFUNC=       0     NFFUNC=       0     DIFFSP=       F
     NPFUNC=       0      DIFFS=       F


     RUN TITLE
     ---------
 Methane ccd basis                                                               

 THE POINT GROUP OF THE MOLECULE IS DNH     
 THE ORDER OF THE PRINCIPAL AXIS IS     4

 ATOM      ATOMIC                      COORDINATES (BOHR)
           CHARGE         X                   Y                   Z
 C           6.0     0.0000000000        0.0000000000       -0.7558903951
 C           6.0     0.0000000000        0.0000000000        0.7558903951
 H           1.0     0.0000000000        0.0000000000       -2.4566437840
 H           1.0     0.0000000000        0.0000000000        2.4566437840

          INTERNUCLEAR DISTANCES (ANGS.)
          ------------------------------

                1 C          2 C          3 H          4 H     

   1 C       0.0000000    0.8000000 *  0.9000000 *  1.7000000 *
   2 C       0.8000000 *  0.0000000    1.7000000 *  0.9000000 *
   3 H       0.9000000 *  1.7000000 *  0.0000000    2.6000000 *
   4 H       1.7000000 *  0.9000000 *  2.6000000 *  0.0000000  

  * ... LESS THAN  3.000


     ATOMIC BASIS SET
     ----------------
 THE CONTRACTED PRIMITIVE FUNCTIONS HAVE BEEN UNNORMALIZED
 THE CONTRACTED BASIS FUNCTIONS ARE NOW NORMALIZED TO UNITY

  SHELL TYPE  PRIMITIVE        EXPONENT          CONTRACTION COEFFICIENT(S)

 C         

      7   S       1          6665.0000000    0.000691583963
      7   S       2          1000.0000000    0.005325796153
      7   S       3           228.0000000    0.027060721042
      7   S       4            64.7100000    0.101656846141
      7   S       5            21.0600000    0.274574823617
      7   S       6             7.4950000    0.448294318924
      7   S       7             2.7970000    0.284902610715
      7   S       8             0.5215000    0.015194859206

      8   S       9          6665.0000000   -0.000293269653
      8   S      10          1000.0000000   -0.002318035474
      8   S      11           228.0000000   -0.011499786039
      8   S      12            64.7100000   -0.046826727010
      8   S      13            21.0600000   -0.128466168750
      8   S      14             7.4950000   -0.301266272463
      8   S      15             2.7970000   -0.255630702330
      8   S      16             0.5215000    1.093793361012

      9   S      17             0.1596000    1.000000000000

     10   P      18             9.4390000    0.056979251590
     10   P      19             2.0020000    0.313207211501
     10   P      20             0.5456000    0.760376741738

     11   P      21             0.1517000    1.000000000000

     12   D      22             0.5500000    1.000000000000

 H         

     16   S      23            13.0100000    0.033498726390
     16   S      24             1.9620000    0.234800801174
     16   S      25             0.4446000    0.813682957883

     17   S      26             0.1220000    1.000000000000

     18   P      27             0.7270000    1.000000000000

 TOTAL NUMBER OF BASIS SET SHELLS             =   18
 NUMBER OF CARTESIAN GAUSSIAN BASIS FUNCTIONS =   40
 NUMBER OF ELECTRONS                          =   14
 CHARGE OF MOLECULE                           =    0
 SPIN MULTIPLICITY                            =    1
 NUMBER OF OCCUPIED ORBITALS (ALPHA)          =    7
 NUMBER OF OCCUPIED ORBITALS (BETA )          =    7
 TOTAL NUMBER OF ATOMS                        =    4
 THE NUCLEAR REPULSION ENERGY IS       34.8075714017

 THIS MOLECULE IS RECOGNIZED AS BEING LINEAR.

     $NEO OPTIONS
     ------------
     NUNIQN=       0     BASNUC=DZSNB        NEOSCF=NONE    
     NEOCI =NONE         NUMULT=       2     NUCST =       1
     NAUXNB=       0     VNUCEX=       F     NEOOPT=       F
     NTAUXB=       0     NEOHSS=       F     HSSINI=READH   
     HSSUPD=POWELLUP     DIRNUC=       F     SYMNUC=       F
     QMTOLN= 0.0E+00     USRDEX=       F
     POSNEO=       F     POSPRP=       F

     $CONTRL OPTIONS
     ---------------
 SCFTYP=RHF          RUNTYP=OPTIMIZE     EXETYP=RUN     
 MPLEVL=       2     CITYP =NONE         CCTYP =NONE         VBTYP =NONE    
 DFTTYP=NONE         TDDFT =NONE    
 MULT  =       1     ICHARG=       0     NZVAR =       5     COORD =UNIQUE  
 PP    =NONE         RELWFN=NONE         LOCAL =NONE         NUMGRD=       F
 ISPHER=      -1     NOSYM =       0     MAXIT =      30     UNITS =ANGS    
 PLTORB=       F     MOLPLT=       F     AIMPAC=       F     FRIEND=        
 NPRINT=       7     IREST =       0     GEOM  =INPUT   
 NORMF =       0     NORMP =       0     ITOL  =      20     ICUT  =       9
 INTTYP=BEST         GRDTYP=BEST         QMTTOL= 1.0E-06

     $SYSTEM OPTIONS
     ---------------
  REPLICATED MEMORY=     1000000 WORDS (ON EVERY NODE).
 DISTRIBUTED MEMDDI=           0 MILLION WORDS IN AGGREGATE,
 MEMDDI DISTRIBUTED OVER   1 PROCESSORS IS           0 WORDS/PROCESSOR.
 TOTAL MEMORY REQUESTED ON EACH PROCESSOR=     1000000 WORDS.
 TIMLIM=      525600.00 MINUTES, OR   365.00 DAYS.
 PARALL= F  BALTYP=  NXTVAL  KDIAG=    0  COREFL= F

          ----------------
          PROPERTIES INPUT
          ----------------

     MOMENTS            FIELD           POTENTIAL          DENSITY
 IEMOM =       1   IEFLD =       0   IEPOT =       0   IEDEN =       0
 WHERE =COMASS     WHERE =NUCLEI     WHERE =NUCLEI     WHERE =NUCLEI  
 OUTPUT=BOTH       OUTPUT=BOTH       OUTPUT=BOTH       OUTPUT=BOTH    
 IEMINT=       0   IEFINT=       0                     IEDINT=       0
                                                       MORB  =       0
          EXTRAPOLATION IN EFFECT
          DIIS IN EFFECT
 ORBITAL PRINTING OPTION: NPREO=   1  40   2   1

     -------------------------------
     INTEGRAL TRANSFORMATION OPTIONS
     -------------------------------
     NWORD  =         0     CUTOFF = 1.0E-09
     MPTRAN =         0     DIRTRF =       F
     AOINTS =DUP     

          ----------------------
          INTEGRAL INPUT OPTIONS
          ----------------------
 NOPK  =       1 NORDER=       0 SCHWRZ=       F

          -----------------------
          MP2 CONTROL INFORMATION
          -----------------------
          NACORE =        2  NBCORE =        2
          LMOMP2 =        F  AOINTS = DUP     
          METHOD =        2  NWORD  =          0
          MP2PRP =        F  OSPT   = NONE    
          CUTOFF = 1.00E-09  CPHFBS = BASISAO 
          CODE   = SERIAL  

          NUMBER OF CORE -A-  ORBITALS =     2
          NUMBER OF CORE -B-  ORBITALS =     2
          NUMBER OF OCC. -A-  ORBITALS =     7
          NUMBER OF OCC. -B-  ORBITALS =     7
          NUMBER OF MOLECULAR ORBITALS =    40
          NUMBER OF   BASIS  FUNCTIONS =    40


 **** EFFICIENCY NOTE ****
 THE MP2 TRANSFORMATION CANNOT USE SYMMETRY WHEN THE GROUP IS NON-ABELIAN.
 YOU MAY BE ABLE TO SPEED UP THIS RUN BY USING AN ABELIAN SUBGROUP IN $DATA.


   --- ENCODED Z MATRIX ---
 COORD  TYPE   I   J   K   L   M   N
    1      1    1   2
    2      1    1   3
    3      1    2   4
    4      5    3   1   2
    5      5    4   2   3

 THE DETERMINANT OF THE G MATRIX IS 10**(    -2)


                     --------------------
                     INTERNAL COORDINATES
                     --------------------

                 - - ATOMS - -         COORDINATE      COORDINATE
 NO.   TYPE    I  J  K  L  M  N        (BOHR,RAD)       (ANG,DEG)
 ----------------------------------------------------------------
   1 STRETCH   1  2                     1.5117808       0.8000000
   2 STRETCH   1  3                     1.7007534       0.9000000
   3 STRETCH   2  4                     1.7007534       0.9000000
   4 LIN.BEND  3  1  2                  3.1415927     180.0000000
   5 LIN.BEND  3  1  2                  3.1415927     180.0000000
   6 LIN.BEND  4  2  3                  3.1415927     180.0000000
   7 LIN.BEND  4  2  3                  3.1415927     180.0000000

     ------------------------------------------
     THE POINT GROUP IS DNH, NAXIS= 4, ORDER=16
     ------------------------------------------

     DIMENSIONS OF THE SYMMETRY SUBSPACES ARE
 A1G =   10     A1U =    0     B1G =    1     B1U =    1     A2G =    0
 A2U =   10     B2G =    1     B2U =    1     EG  =    4     EU  =    4

 ..... DONE SETTING UP THE RUN .....
 STEP CPU TIME =     0.03 TOTAL CPU TIME =        0.0 (    0.0 MIN)
 TOTAL WALL CLOCK TIME=        0.1 SECONDS, CPU UTILIZATION IS  49.21%


          -----------------------------
          STATIONARY POINT LOCATION RUN
          -----------------------------

 OBTAINING INITIAL HESSIAN, HESS=GUESS   
 DIAGONAL GUESS HESSIAN IN INTERNAL COORDS IS
     1  1.5177     2  0.5011     3  0.5011     4  0.2500     5  0.2500
     6  0.2500     7  0.2500

          PARAMETERS CONTROLLING GEOMETRY SEARCH ARE
          METHOD =QA                  UPHESS =BFGS    
          NNEG   =         0          NFRZ   =         0
          NSTEP  =       250          IFOLOW =         1
          HESS   =GUESS               RESTAR =         F
          IHREP  =         0          HSSEND =         T
          NPRT   =         0          NPUN   =         0
          OPTTOL = 1.000E-04          RMIN   = 1.500E-03
          RMAX   = 1.000E-01          RLIM   = 7.000E-02
          DXMAX  = 3.000E-01          PURIFY =         F
          MOVIE  =         F          TRUPD  =         T
          TRMAX  = 5.000E-01          TRMIN  = 5.000E-02
          ITBMAT =         5          STPT   =         F
          STSTEP = 1.000E-02          PROJCT=          T

 BEGINNING GEOMETRY SEARCH POINT NSERCH=   0 ...

 COORDINATES OF SYMMETRY UNIQUE ATOMS (ANGS)
   ATOM   CHARGE       X              Y              Z
 ------------------------------------------------------------
 C           6.0   0.0000000000   0.0000000000   0.4000000000
 H           1.0   0.0000000000   0.0000000000   1.3000000000
 COORDINATES OF ALL ATOMS ARE (ANGS)
   ATOM   CHARGE       X              Y              Z
 ------------------------------------------------------------
 C           6.0   0.0000000000   0.0000000000  -0.4000000000
 C           6.0   0.0000000000   0.0000000000   0.4000000000
 H           1.0   0.0000000000   0.0000000000  -1.3000000000
 H           1.0   0.0000000000   0.0000000000   1.3000000000


                     --------------------
                     INTERNAL COORDINATES
                     --------------------

                 - - ATOMS - -         COORDINATE      COORDINATE
 NO.   TYPE    I  J  K  L  M  N        (BOHR,RAD)       (ANG,DEG)
 ----------------------------------------------------------------
   1 STRETCH   1  2                     1.5117808       0.8000000
   2 STRETCH   1  3                     1.7007534       0.9000000
   3 STRETCH   2  4                     1.7007534       0.9000000
   4 LIN.BEND  3  1  2                  3.1415927     180.0000000
   5 LIN.BEND  3  1  2                  3.1415927     180.0000000
   6 LIN.BEND  4  2  3                  3.1415927     180.0000000
   7 LIN.BEND  4  2  3                  3.1415927     180.0000000

          ********************
          1 ELECTRON INTEGRALS
          ********************
 ...... END OF ONE-ELECTRON INTEGRALS ......
 STEP CPU TIME =     0.03 TOTAL CPU TIME =        0.1 (    0.0 MIN)
 TOTAL WALL CLOCK TIME=        0.2 SECONDS, CPU UTILIZATION IS  33.51%

          -------------
          GUESS OPTIONS
          -------------
          GUESS =HUCKEL            NORB  =       0          NORDER=       0
          MIX   =       F          PRTMO =       F          PUNMO =       F
          TOLZ  = 1.0E-08          TOLE  = 1.0E-05
          SYMDEN=       F          PURIFY=       F

 INITIAL GUESS ORBITALS GENERATED BY HUCKEL   ROUTINE.
 HUCKEL GUESS REQUIRES     15280 WORDS.

 SYMMETRIES FOR INITIAL GUESS ORBITALS FOLLOW.   BOTH SET(S).
     7 ORBITALS ARE OCCUPIED (    2 CORE ORBITALS).
     3=A1G      4=A2U      5=EU       6=EU       7=A1G      8=EG       9=EG  
    10=A2U     11=A1G     12=A2U     13=A1G     14=A1G     15=A1G     16=A1G 
    17=A1G 
 ...... END OF INITIAL ORBITAL SELECTION ......
 STEP CPU TIME =     0.02 TOTAL CPU TIME =        0.1 (    0.0 MIN)
 TOTAL WALL CLOCK TIME=        0.3 SECONDS, CPU UTILIZATION IS  24.92%

                    ----------------------
                    AO INTEGRAL TECHNOLOGY
                    ----------------------
     S,P,L SHELL ROTATED AXIS INTEGRALS, REPROGRAMMED BY
        KAZUYA ISHIMURA (IMS) AND JOSE SIERRA (SYNSTAR).
     S,P,D,L SHELL ROTATED AXIS INTEGRALS PROGRAMMED BY
        KAZUYA ISHIMURA (INSTITUTE FOR MOLECULAR SCIENCE).
     S,P,D,F,G SHELL TO TOTAL QUARTET ANGULAR MOMENTUM SUM 5,
        ERIC PROGRAM BY GRAHAM FLETCHER (ELORET AND NASA ADVANCED
        SUPERCOMPUTING DIVISION, AMES RESEARCH CENTER).
     S,P,D,F,G,L SHELL GENERAL RYS QUADRATURE PROGRAMMED BY
        MICHEL DUPUIS (PACIFIC NORTHWEST NATIONAL LABORATORY).

          --------------------
          2 ELECTRON INTEGRALS
          --------------------

 THE -PK- OPTION IS OFF, THE INTEGRALS ARE NOT IN SUPERMATRIX FORM.
 STORING   15000 INTEGRALS/RECORD ON DISK, USING 12 BYTES/INTEGRAL.
 TWO ELECTRON INTEGRAL EVALUATION REQUIRES   90567 WORDS OF MEMORY.
 II,JST,KST,LST =  1  1  1  1 NREC =         1 INTLOC =    1
 II,JST,KST,LST =  2  1  1  1 NREC =         1 INTLOC =    1
 II,JST,KST,LST =  3  1  1  1 NREC =         1 INTLOC =    1
 II,JST,KST,LST =  4  1  1  1 NREC =         1 INTLOC =    1
 II,JST,KST,LST =  5  1  1  1 NREC =         1 INTLOC =    1
 II,JST,KST,LST =  6  1  1  1 NREC =         1 INTLOC =    1
 II,JST,KST,LST =  7  1  1  1 NREC =         1 INTLOC =    1
 II,JST,KST,LST =  8  1  1  1 NREC =         1 INTLOC =    5
 II,JST,KST,LST =  9  1  1  1 NREC =         1 INTLOC =   32
 II,JST,KST,LST = 10  1  1  1 NREC =         1 INTLOC =  124
 II,JST,KST,LST = 11  1  1  1 NREC =         1 INTLOC =  595
 II,JST,KST,LST = 12  1  1  1 NREC =         1 INTLOC = 2269
 II,JST,KST,LST = 13  1  1  1 NREC =         1 INTLOC =14906
 II,JST,KST,LST = 14  1  1  1 NREC =         1 INTLOC =14906
 II,JST,KST,LST = 15  1  1  1 NREC =         1 INTLOC =14906
 II,JST,KST,LST = 16  1  1  1 NREC =         1 INTLOC =14906
 II,JST,KST,LST = 17  1  1  1 NREC =         2 INTLOC = 4936
 II,JST,KST,LST = 18  1  1  1 NREC =         2 INTLOC =11239
 TOTAL NUMBER OF NONZERO TWO-ELECTRON INTEGRALS =               48335
          4 INTEGRAL RECORDS WERE STORED ON DISK FILE  8.
  ...... END OF TWO-ELECTRON INTEGRALS .....
 STEP CPU TIME =     0.36 TOTAL CPU TIME =        0.4 (    0.0 MIN)
 TOTAL WALL CLOCK TIME=        0.8 SECONDS, CPU UTILIZATION IS  52.90%

          --------------------------
                 RHF SCF CALCULATION
          --------------------------

     NUCLEAR ENERGY =        34.8075714017
     MAXIT =   30     NPUNCH=    2
     EXTRAP=T  DAMP=F  SHIFT=F  RSTRCT=F  DIIS=T  DEM=F  SOSCF=F
     DENSITY MATRIX CONV=  1.00E-06
     MEMORY REQUIRED FOR RHF STEP=     42425 WORDS.

 ITER EX DEM     TOTAL ENERGY        E CHANGE  DENSITY CHANGE    DIIS ERROR
          * * *   INITIATING DIIS PROCEDURE   * * *
   1  0  0      -75.6925568657   -75.6925568657   0.522848022   0.406069718
   2  1  0      -75.9634032283    -0.2708463626   0.084980930   0.082110159
   3  2  0      -75.9824753483    -0.0190721201   0.058014297   0.026855304
   4  3  0      -75.9834296995    -0.0009543512   0.009014353   0.002584386
   5  4  0      -75.9834544950    -0.0000247954   0.000442089   0.000409462
   6  5  0      -75.9834549353    -0.0000004403   0.000416444   0.000045073
   7  6  0      -75.9834549423    -0.0000000070   0.000047446   0.000003021
   8  7  0      -75.9834549423     0.0000000000   0.000000475   0.000000319
   9  8  0      -75.9834549423     0.0000000000   0.000000637   0.000000047

          -----------------
          DENSITY CONVERGED
          -----------------
     TIME TO FORM FOCK OPERATORS=       0.1 SECONDS (       0.0 SEC/ITER)
     TIME TO SOLVE SCF EQUATIONS=       0.0 SECONDS (       0.0 SEC/ITER)

 FINAL RHF ENERGY IS      -75.9834549423 AFTER   9 ITERATIONS

          ------------
          EIGENVECTORS
          ------------

                      1          2          3          4          5
                  -11.2209   -11.1392    -1.0784    -0.7506    -0.6997
                     A1G        A2U        A1G        A2U        A1G 
    1  C  1  S    0.699711   0.712369  -0.114419  -0.041384  -0.076851
    2  C  1  S    0.000374   0.005417   0.286844   0.162748  -0.054574
    3  C  1  S    0.006110   0.014176   0.186235   0.579750   0.088307
    4  C  1  X    0.000000   0.000000   0.000000   0.000000   0.000000
    5  C  1  Y    0.000000   0.000000   0.000000   0.000000   0.000000
    6  C  1  Z    0.010312   0.002796   0.247121  -0.218294   0.456920
    7  C  1  X    0.000000   0.000000   0.000000   0.000000   0.000000
    8  C  1  Y    0.000000   0.000000   0.000000   0.000000   0.000000
    9  C  1  Z   -0.003176   0.004712  -0.015048   0.144281  -0.064090
   10  C  1 XX   -0.004393  -0.003263  -0.001321  -0.006663   0.001189
   11  C  1 YY   -0.004393  -0.003263  -0.001321  -0.006663   0.001189
   12  C  1 ZZ    0.000290  -0.002264  -0.020651   0.023317   0.009771
   13  C  1 XY    0.000000   0.000000   0.000000   0.000000   0.000000
   14  C  1 XZ    0.000000   0.000000   0.000000   0.000000   0.000000
   15  C  1 YZ    0.000000   0.000000   0.000000   0.000000   0.000000
   16  C  2  S    0.699711  -0.712369  -0.114419   0.041384  -0.076851
   17  C  2  S    0.000374  -0.005417   0.286844  -0.162748  -0.054574
   18  C  2  S    0.006110  -0.014176   0.186235  -0.579750   0.088307
   19  C  2  X    0.000000   0.000000   0.000000   0.000000   0.000000
   20  C  2  Y    0.000000   0.000000   0.000000   0.000000   0.000000
   21  C  2  Z   -0.010312   0.002796  -0.247121  -0.218294  -0.456920
   22  C  2  X    0.000000   0.000000   0.000000   0.000000   0.000000
   23  C  2  Y    0.000000   0.000000   0.000000   0.000000   0.000000
   24  C  2  Z    0.003176   0.004712   0.015048   0.144281   0.064090
   25  C  2 XX   -0.004393   0.003263  -0.001321   0.006663   0.001189
   26  C  2 YY   -0.004393   0.003263  -0.001321   0.006663   0.001189
   27  C  2 ZZ    0.000290   0.002264  -0.020651  -0.023317   0.009771
   28  C  2 XY    0.000000   0.000000   0.000000   0.000000   0.000000
   29  C  2 XZ    0.000000   0.000000   0.000000   0.000000   0.000000
   30  C  2 YZ    0.000000   0.000000   0.000000   0.000000   0.000000
   31  H  3  S    0.003336   0.001757   0.155275   0.327178  -0.306323
   32  H  3  S   -0.002971   0.000975  -0.022261   0.138256  -0.184058
   33  H  3  X    0.000000   0.000000   0.000000   0.000000   0.000000
   34  H  3  Y    0.000000   0.000000   0.000000   0.000000   0.000000
   35  H  3  Z    0.003543   0.001044   0.047782   0.026456   0.003438
   36  H  4  S    0.003336  -0.001757   0.155275  -0.327178  -0.306323
   37  H  4  S   -0.002971  -0.000975  -0.022261  -0.138256  -0.184058
   38  H  4  X    0.000000   0.000000   0.000000   0.000000   0.000000
   39  H  4  Y    0.000000   0.000000   0.000000   0.000000   0.000000
   40  H  4  Z   -0.003543   0.001044  -0.047782   0.026456  -0.003438

                      6          7          8          9         10
                   -0.5480    -0.5480     0.2137     0.2295     0.3249
                     EU         EU         A2U        A1G        EG  
    1  C  1  S    0.000000   0.000000   0.010744  -0.006356   0.000000
    2  C  1  S    0.000000   0.000000  -0.073612  -0.090031   0.000000
    3  C  1  S    0.000000   0.000000  15.770860  -2.090538   0.000000
    4  C  1  X    0.453907   0.000000   0.000000   0.000000   0.000000
    5  C  1  Y    0.000000   0.453907   0.000000   0.000000   0.242921
    6  C  1  Z    0.000000   0.000000   0.106822   0.121173   0.000000
    7  C  1  X    0.154717   0.000000   0.000000   0.000000   0.000000
    8  C  1  Y    0.000000   0.154717   0.000000   0.000000   1.518742
    9  C  1  Z    0.000000   0.000000   7.585846   1.471591   0.000000
   10  C  1 XX    0.000000   0.000000  -0.060474   0.020664   0.000000
   11  C  1 YY    0.000000   0.000000  -0.060474   0.020664   0.000000
   12  C  1 ZZ    0.000000   0.000000   0.053080   0.137410   0.000000
   13  C  1 XY    0.000000   0.000000   0.000000   0.000000   0.000000
   14  C  1 XZ    0.035090   0.000000   0.000000   0.000000   0.000000
   15  C  1 YZ    0.000000   0.035090   0.000000   0.000000   0.028143
   16  C  2  S    0.000000   0.000000  -0.010744  -0.006356   0.000000
   17  C  2  S    0.000000   0.000000   0.073612  -0.090031   0.000000
   18  C  2  S    0.000000   0.000000 -15.770860  -2.090538   0.000000
   19  C  2  X    0.453907   0.000000   0.000000   0.000000   0.000000
   20  C  2  Y    0.000000   0.453907   0.000000   0.000000  -0.242921
   21  C  2  Z    0.000000   0.000000   0.106822  -0.121173   0.000000
   22  C  2  X    0.154717   0.000000   0.000000   0.000000   0.000000
   23  C  2  Y    0.000000   0.154717   0.000000   0.000000  -1.518742
   24  C  2  Z    0.000000   0.000000   7.585846  -1.471591   0.000000
   25  C  2 XX    0.000000   0.000000   0.060474   0.020664   0.000000
   26  C  2 YY    0.000000   0.000000   0.060474   0.020664   0.000000
   27  C  2 ZZ    0.000000   0.000000  -0.053080   0.137410   0.000000
   28  C  2 XY    0.000000   0.000000   0.000000   0.000000   0.000000
   29  C  2 XZ   -0.035090   0.000000   0.000000   0.000000   0.000000
   30  C  2 YZ    0.000000  -0.035090   0.000000   0.000000   0.028143
   31  H  3  S    0.000000   0.000000  -0.047503  -0.094798   0.000000
   32  H  3  S    0.000000   0.000000   4.090156   2.423295   0.000000
   33  H  3  X    0.014873   0.000000   0.000000   0.000000   0.000000
   34  H  3  Y    0.000000   0.014873   0.000000   0.000000   0.039557
   35  H  3  Z    0.000000   0.000000  -0.064685  -0.008917   0.000000
   36  H  4  S    0.000000   0.000000   0.047503  -0.094798   0.000000
   37  H  4  S    0.000000   0.000000  -4.090156   2.423295   0.000000
   38  H  4  X    0.014873   0.000000   0.000000   0.000000   0.000000
   39  H  4  Y    0.000000   0.014873   0.000000   0.000000  -0.039557
   40  H  4  Z    0.000000   0.000000  -0.064685   0.008917   0.000000

                     11         12         13         14         15
                    0.3249     0.5127     0.5536     0.5536     0.7013
                     EG         A1G        EU         EU         A2U 
    1  C  1  S    0.000000  -0.144030   0.000000   0.000000  -0.018084
    2  C  1  S    0.000000  -0.353957   0.000000   0.000000   0.194885
    3  C  1  S    0.000000   0.377153   0.000000   0.000000  42.577302
    4  C  1  X    0.242921   0.000000  -0.499972   0.000000   0.000000
    5  C  1  Y    0.000000   0.000000   0.000000  -0.499972   0.000000
    6  C  1  Z    0.000000  -0.317051   0.000000   0.000000  -0.086293
    7  C  1  X    1.518742   0.000000   0.610591   0.000000   0.000000
    8  C  1  Y    0.000000   0.000000   0.000000   0.610591   0.000000
    9  C  1  Z    0.000000   1.152370   0.000000   0.000000  17.385505
   10  C  1 XX    0.000000  -0.119867   0.000000   0.000000  -0.134024
   11  C  1 YY    0.000000  -0.119867   0.000000   0.000000  -0.134024
   12  C  1 ZZ    0.000000  -0.291185   0.000000   0.000000   0.123397
   13  C  1 XY    0.000000   0.000000   0.000000   0.000000   0.000000
   14  C  1 XZ    0.028143   0.000000  -0.077592   0.000000   0.000000
   15  C  1 YZ    0.000000   0.000000   0.000000  -0.077592   0.000000
   16  C  2  S    0.000000  -0.144030   0.000000   0.000000   0.018084
   17  C  2  S    0.000000  -0.353957   0.000000   0.000000  -0.194885
   18  C  2  S    0.000000   0.377153   0.000000   0.000000 -42.577302
   19  C  2  X   -0.242921   0.000000  -0.499972   0.000000   0.000000
   20  C  2  Y    0.000000   0.000000   0.000000  -0.499972   0.000000
   21  C  2  Z    0.000000   0.317051   0.000000   0.000000  -0.086293
   22  C  2  X   -1.518742   0.000000   0.610591   0.000000   0.000000
   23  C  2  Y    0.000000   0.000000   0.000000   0.610591   0.000000
   24  C  2  Z    0.000000  -1.152370   0.000000   0.000000  17.385505
   25  C  2 XX    0.000000  -0.119867   0.000000   0.000000   0.134024
   26  C  2 YY    0.000000  -0.119867   0.000000   0.000000   0.134024
   27  C  2 ZZ    0.000000  -0.291185   0.000000   0.000000  -0.123397
   28  C  2 XY    0.000000   0.000000   0.000000   0.000000   0.000000
   29  C  2 XZ    0.028143   0.000000   0.077592   0.000000   0.000000
   30  C  2 YZ    0.000000   0.000000   0.000000   0.077592   0.000000
   31  H  3  S    0.000000  -0.165926   0.000000   0.000000  -0.232598
   32  H  3  S    0.000000   0.294789   0.000000   0.000000   5.350782
   33  H  3  X    0.039557   0.000000  -0.021666   0.000000   0.000000
   34  H  3  Y    0.000000   0.000000   0.000000  -0.021666   0.000000
   35  H  3  Z    0.000000   0.039113   0.000000   0.000000  -0.083482
   36  H  4  S    0.000000  -0.165926   0.000000   0.000000   0.232598
   37  H  4  S    0.000000   0.294789   0.000000   0.000000  -5.350782
   38  H  4  X   -0.039557   0.000000  -0.021666   0.000000   0.000000
   39  H  4  Y    0.000000   0.000000   0.000000  -0.021666   0.000000
   40  H  4  Z    0.000000  -0.039113   0.000000   0.000000  -0.083482

                     16         17         18         19         20
                    0.8526     0.9206     0.9467     0.9467     1.2504
                     A2U        A1G        EG         EG         B2G 
    1  C  1  S    0.194276  -0.174731   0.000000   0.000000   0.000000
    2  C  1  S    0.306921  -0.404744   0.000000   0.000000   0.000000
    3  C  1  S    5.869730   4.124443   0.000000   0.000000   0.000000
    4  C  1  X    0.000000   0.000000   0.000000  -0.563353   0.000000
    5  C  1  Y    0.000000   0.000000  -0.563353   0.000000   0.000000
    6  C  1  Z   -0.289335   0.480358   0.000000   0.000000   0.000000
    7  C  1  X    0.000000   0.000000   0.000000   1.511112   0.000000
    8  C  1  Y    0.000000   0.000000   1.511112   0.000000   0.000000
    9  C  1  Z    4.372279  -3.449024   0.000000   0.000000   0.000000
   10  C  1 XX    0.044238  -0.177848   0.000000   0.000000   0.000000
   11  C  1 YY    0.044238  -0.177848   0.000000   0.000000   0.000000
   12  C  1 ZZ    0.125110  -0.776815   0.000000   0.000000   0.000000
   13  C  1 XY    0.000000   0.000000   0.000000   0.000000   0.571030
   14  C  1 XZ    0.000000   0.000000   0.000000   0.463204   0.000000
   15  C  1 YZ    0.000000   0.000000   0.463204   0.000000   0.000000
   16  C  2  S   -0.194276  -0.174731   0.000000   0.000000   0.000000
   17  C  2  S   -0.306921  -0.404744   0.000000   0.000000   0.000000
   18  C  2  S   -5.869730   4.124443   0.000000   0.000000   0.000000
   19  C  2  X    0.000000   0.000000   0.000000   0.563353   0.000000
   20  C  2  Y    0.000000   0.000000   0.563353   0.000000   0.000000
   21  C  2  Z   -0.289335  -0.480358   0.000000   0.000000   0.000000
   22  C  2  X    0.000000   0.000000   0.000000  -1.511112   0.000000
   23  C  2  Y    0.000000   0.000000  -1.511112   0.000000   0.000000
   24  C  2  Z    4.372279   3.449024   0.000000   0.000000   0.000000
   25  C  2 XX   -0.044238  -0.177848   0.000000   0.000000   0.000000
   26  C  2 YY   -0.044238  -0.177848   0.000000   0.000000   0.000000
   27  C  2 ZZ   -0.125110  -0.776815   0.000000   0.000000   0.000000
   28  C  2 XY    0.000000   0.000000   0.000000   0.000000   0.571030
   29  C  2 XZ    0.000000   0.000000   0.000000   0.463204   0.000000
   30  C  2 YZ    0.000000   0.000000   0.463204   0.000000   0.000000
   31  H  3  S    0.798407   0.013754   0.000000   0.000000   0.000000
   32  H  3  S    2.162432  -2.982847   0.000000   0.000000   0.000000
   33  H  3  X    0.000000   0.000000   0.000000  -0.007685   0.000000
   34  H  3  Y    0.000000   0.000000  -0.007685   0.000000   0.000000
   35  H  3  Z   -0.072893   0.059998   0.000000   0.000000   0.000000
   36  H  4  S   -0.798407   0.013754   0.000000   0.000000   0.000000
   37  H  4  S   -2.162432  -2.982847   0.000000   0.000000   0.000000
   38  H  4  X    0.000000   0.000000   0.000000   0.007685   0.000000
   39  H  4  Y    0.000000   0.000000   0.007685   0.000000   0.000000
   40  H  4  Z   -0.072893  -0.059998   0.000000   0.000000   0.000000

                     21         22         23         24         25
                    1.2504     1.3624     1.4458     1.4458     1.5393
                     B1G        A1G        EU         EU         A2U 
    1  C  1  S    0.000000  -0.360882   0.000000   0.000000  -0.151593
    2  C  1  S    0.000000  -0.632580   0.000000   0.000000  -0.490215
    3  C  1  S    0.000000  -1.310275   0.000000   0.000000  58.521666
    4  C  1  X    0.000000   0.000000   0.142628   0.000000   0.000000
    5  C  1  Y    0.000000   0.000000   0.000000   0.142628   0.000000
    6  C  1  Z    0.000000   0.097640   0.000000   0.000000   0.434251
    7  C  1  X    0.000000   0.000000  -0.170344   0.000000   0.000000
    8  C  1  Y    0.000000   0.000000   0.000000  -0.170344   0.000000
    9  C  1  Z    0.000000   2.739286   0.000000   0.000000  21.744321
   10  C  1 XX    0.494527  -0.215276   0.000000   0.000000  -0.620142
   11  C  1 YY   -0.494527  -0.215276   0.000000   0.000000  -0.620142
   12  C  1 ZZ    0.000000   0.492093   0.000000   0.000000   0.539181
   13  C  1 XY    0.000000   0.000000   0.000000   0.000000   0.000000
   14  C  1 XZ    0.000000   0.000000  -0.340284   0.000000   0.000000
   15  C  1 YZ    0.000000   0.000000   0.000000  -0.340284   0.000000
   16  C  2  S    0.000000  -0.360882   0.000000   0.000000   0.151593
   17  C  2  S    0.000000  -0.632580   0.000000   0.000000   0.490215
   18  C  2  S    0.000000  -1.310275   0.000000   0.000000 -58.521666
   19  C  2  X    0.000000   0.000000   0.142628   0.000000   0.000000
   20  C  2  Y    0.000000   0.000000   0.000000   0.142628   0.000000
   21  C  2  Z    0.000000  -0.097640   0.000000   0.000000   0.434251
   22  C  2  X    0.000000   0.000000  -0.170344   0.000000   0.000000
   23  C  2  Y    0.000000   0.000000   0.000000  -0.170344   0.000000
   24  C  2  Z    0.000000  -2.739286   0.000000   0.000000  21.744321
   25  C  2 XX    0.494527  -0.215276   0.000000   0.000000   0.620142
   26  C  2 YY   -0.494527  -0.215276   0.000000   0.000000   0.620142
   27  C  2 ZZ    0.000000   0.492093   0.000000   0.000000  -0.539181
   28  C  2 XY    0.000000   0.000000   0.000000   0.000000   0.000000
   29  C  2 XZ    0.000000   0.000000   0.340284   0.000000   0.000000
   30  C  2 YZ    0.000000   0.000000   0.000000   0.340284   0.000000
   31  H  3  S    0.000000   0.772612   0.000000   0.000000   0.065383
   32  H  3  S    0.000000   1.054841   0.000000   0.000000   5.009256
   33  H  3  X    0.000000   0.000000   0.485384   0.000000   0.000000
   34  H  3  Y    0.000000   0.000000   0.000000   0.485384   0.000000
   35  H  3  Z    0.000000  -0.435501   0.000000   0.000000  -0.580316
   36  H  4  S    0.000000   0.772612   0.000000   0.000000  -0.065383
   37  H  4  S    0.000000   1.054841   0.000000   0.000000  -5.009256
   38  H  4  X    0.000000   0.000000   0.485384   0.000000   0.000000
   39  H  4  Y    0.000000   0.000000   0.000000   0.485384   0.000000
   40  H  4  Z    0.000000   0.435501   0.000000   0.000000  -0.580316

                     26         27         28         29         30
                    1.8902     1.8902     1.9727     1.9727     2.1658
                     B2U        B1U        EG         EG         A2U 
    1  C  1  S    0.000000   0.000000   0.000000   0.000000   0.210980
    2  C  1  S    0.000000   0.000000   0.000000   0.000000   0.407444
    3  C  1  S    0.000000   0.000000   0.000000   0.000000   0.784453
    4  C  1  X    0.000000   0.000000   0.000000  -0.446322   0.000000
    5  C  1  Y    0.000000   0.000000  -0.446322   0.000000   0.000000
    6  C  1  Z    0.000000   0.000000   0.000000   0.000000   0.215015
    7  C  1  X    0.000000   0.000000   0.000000  -0.677113   0.000000
    8  C  1  Y    0.000000   0.000000  -0.677113   0.000000   0.000000
    9  C  1  Z    0.000000   0.000000   0.000000   0.000000   1.158971
   10  C  1 XX    0.896473   0.000000   0.000000   0.000000   0.595746
   11  C  1 YY   -0.896473   0.000000   0.000000   0.000000   0.595746
   12  C  1 ZZ    0.000000   0.000000   0.000000   0.000000  -0.384027
   13  C  1 XY    0.000000   1.035158   0.000000   0.000000   0.000000
   14  C  1 XZ    0.000000   0.000000   0.000000   0.054007   0.000000
   15  C  1 YZ    0.000000   0.000000   0.054007   0.000000   0.000000
   16  C  2  S    0.000000   0.000000   0.000000   0.000000  -0.210980
   17  C  2  S    0.000000   0.000000   0.000000   0.000000  -0.407444
   18  C  2  S    0.000000   0.000000   0.000000   0.000000  -0.784453
   19  C  2  X    0.000000   0.000000   0.000000   0.446322   0.000000
   20  C  2  Y    0.000000   0.000000   0.446322   0.000000   0.000000
   21  C  2  Z    0.000000   0.000000   0.000000   0.000000   0.215015
   22  C  2  X    0.000000   0.000000   0.000000   0.677113   0.000000
   23  C  2  Y    0.000000   0.000000   0.677113   0.000000   0.000000
   24  C  2  Z    0.000000   0.000000   0.000000   0.000000   1.158971
   25  C  2 XX   -0.896473   0.000000   0.000000   0.000000  -0.595746
   26  C  2 YY    0.896473   0.000000   0.000000   0.000000  -0.595746
   27  C  2 ZZ    0.000000   0.000000   0.000000   0.000000   0.384027
   28  C  2 XY    0.000000  -1.035158   0.000000   0.000000   0.000000
   29  C  2 XZ    0.000000   0.000000   0.000000   0.054007   0.000000
   30  C  2 YZ    0.000000   0.000000   0.054007   0.000000   0.000000
   31  H  3  S    0.000000   0.000000   0.000000   0.000000   0.525946
   32  H  3  S    0.000000   0.000000   0.000000   0.000000   0.449096
   33  H  3  X    0.000000   0.000000   0.000000   0.862182   0.000000
   34  H  3  Y    0.000000   0.000000   0.862182   0.000000   0.000000
   35  H  3  Z    0.000000   0.000000   0.000000   0.000000  -0.561378
   36  H  4  S    0.000000   0.000000   0.000000   0.000000  -0.525946
   37  H  4  S    0.000000   0.000000   0.000000   0.000000  -0.449096
   38  H  4  X    0.000000   0.000000   0.000000  -0.862182   0.000000
   39  H  4  Y    0.000000   0.000000  -0.862182   0.000000   0.000000
   40  H  4  Z    0.000000   0.000000   0.000000   0.000000  -0.561378

                     31         32         33         34         35
                    2.1701     2.7001     2.7001     3.1437     3.2578
                     A1G        EU         EU         A1G        EG  
    1  C  1  S   -0.352441   0.000000   0.000000   0.829685   0.000000
    2  C  1  S   -0.116239   0.000000   0.000000   1.885277   0.000000
    3  C  1  S    1.190271   0.000000   0.000000   1.314335   0.000000
    4  C  1  X    0.000000  -0.650768   0.000000   0.000000   0.000000
    5  C  1  Y    0.000000   0.000000  -0.650768   0.000000   1.812634
    6  C  1  Z    0.376055   0.000000   0.000000  -0.897850   0.000000
    7  C  1  X    0.000000  -0.022372   0.000000   0.000000   0.000000
    8  C  1  Y    0.000000   0.000000  -0.022372   0.000000   0.460326
    9  C  1  Z    0.029860   0.000000   0.000000  -0.466454   0.000000
   10  C  1 XX   -0.748080   0.000000   0.000000  -0.647298   0.000000
   11  C  1 YY   -0.748080   0.000000   0.000000  -0.647298   0.000000
   12  C  1 ZZ   -0.318542   0.000000   0.000000  -1.015817   0.000000
   13  C  1 XY    0.000000   0.000000   0.000000   0.000000   0.000000
   14  C  1 XZ    0.000000   0.966951   0.000000   0.000000   0.000000
   15  C  1 YZ    0.000000   0.000000   0.966951   0.000000   2.139816
   16  C  2  S   -0.352441   0.000000   0.000000   0.829685   0.000000
   17  C  2  S   -0.116239   0.000000   0.000000   1.885277   0.000000
   18  C  2  S    1.190271   0.000000   0.000000   1.314335   0.000000
   19  C  2  X    0.000000  -0.650768   0.000000   0.000000   0.000000
   20  C  2  Y    0.000000   0.000000  -0.650768   0.000000  -1.812634
   21  C  2  Z   -0.376055   0.000000   0.000000   0.897850   0.000000
   22  C  2  X    0.000000  -0.022372   0.000000   0.000000   0.000000
   23  C  2  Y    0.000000   0.000000  -0.022372   0.000000  -0.460326
   24  C  2  Z   -0.029860   0.000000   0.000000   0.466454   0.000000
   25  C  2 XX   -0.748080   0.000000   0.000000  -0.647298   0.000000
   26  C  2 YY   -0.748080   0.000000   0.000000  -0.647298   0.000000
   27  C  2 ZZ   -0.318542   0.000000   0.000000  -1.015817   0.000000
   28  C  2 XY    0.000000   0.000000   0.000000   0.000000   0.000000
   29  C  2 XZ    0.000000  -0.966951   0.000000   0.000000   0.000000
   30  C  2 YZ    0.000000   0.000000  -0.966951   0.000000   2.139816
   31  H  3  S    0.262917   0.000000   0.000000  -0.609484   0.000000
   32  H  3  S   -0.256914   0.000000   0.000000  -0.719564   0.000000
   33  H  3  X    0.000000   0.923136   0.000000   0.000000   0.000000
   34  H  3  Y    0.000000   0.000000   0.923136   0.000000   0.778701
   35  H  3  Z    0.591027   0.000000   0.000000  -0.915324   0.000000
   36  H  4  S    0.262917   0.000000   0.000000  -0.609484   0.000000
   37  H  4  S   -0.256914   0.000000   0.000000  -0.719564   0.000000
   38  H  4  X    0.000000   0.923136   0.000000   0.000000   0.000000
   39  H  4  Y    0.000000   0.000000   0.923136   0.000000  -0.778701
   40  H  4  Z   -0.591027   0.000000   0.000000   0.915324   0.000000

                     36         37         38         39         40
                    3.2578     3.3451     4.2939     6.4767    11.8110
                     EG         A2U        A2U        A1G        A2U 
    1  C  1  S    0.000000   0.295458   0.171069  -1.657957   4.771575
    2  C  1  S    0.000000   1.163106   0.765388  -2.804693   7.715033
    3  C  1  S    0.000000  31.062142   8.162208  -0.472876  -0.520091
    4  C  1  X    1.812634   0.000000   0.000000   0.000000   0.000000
    5  C  1  Y    0.000000   0.000000   0.000000   0.000000   0.000000
    6  C  1  Z    0.000000  -0.444658   2.151550  -0.954068   1.970588
    7  C  1  X    0.460326   0.000000   0.000000   0.000000   0.000000
    8  C  1  Y    0.000000   0.000000   0.000000   0.000000   0.000000
    9  C  1  Z    0.000000  10.191268   2.540194   0.312825  -0.330874
   10  C  1 XX    0.000000  -1.567356  -0.740703   0.078978  -0.886788
   11  C  1 YY    0.000000  -1.567356  -0.740703   0.078978  -0.886788
   12  C  1 ZZ    0.000000  -0.285449  -0.920503   6.658637   3.115221
   13  C  1 XY    0.000000   0.000000   0.000000   0.000000   0.000000
   14  C  1 XZ    2.139816   0.000000   0.000000   0.000000   0.000000
   15  C  1 YZ    0.000000   0.000000   0.000000   0.000000   0.000000
   16  C  2  S    0.000000  -0.295458  -0.171069  -1.657957  -4.771575
   17  C  2  S    0.000000  -1.163106  -0.765388  -2.804693  -7.715033
   18  C  2  S    0.000000 -31.062142  -8.162208  -0.472876   0.520091
   19  C  2  X   -1.812634   0.000000   0.000000   0.000000   0.000000
   20  C  2  Y    0.000000   0.000000   0.000000   0.000000   0.000000
   21  C  2  Z    0.000000  -0.444658   2.151550   0.954068   1.970588
   22  C  2  X   -0.460326   0.000000   0.000000   0.000000   0.000000
   23  C  2  Y    0.000000   0.000000   0.000000   0.000000   0.000000
   24  C  2  Z    0.000000  10.191268   2.540194  -0.312825  -0.330874
   25  C  2 XX    0.000000   1.567356   0.740703   0.078978   0.886788
   26  C  2 YY    0.000000   1.567356   0.740703   0.078978   0.886788
   27  C  2 ZZ    0.000000   0.285449   0.920503   6.658637  -3.115221
   28  C  2 XY    0.000000   0.000000   0.000000   0.000000   0.000000
   29  C  2 XZ    2.139816   0.000000   0.000000   0.000000   0.000000
   30  C  2 YZ    0.000000   0.000000   0.000000   0.000000   0.000000
   31  H  3  S    0.000000  -0.952315   1.450185  -4.862950  -3.261245
   32  H  3  S    0.000000   1.733039   0.372079   0.590073   0.081989
   33  H  3  X    0.778701   0.000000   0.000000   0.000000   0.000000
   34  H  3  Y    0.000000   0.000000   0.000000   0.000000   0.000000
   35  H  3  Z    0.000000  -0.956223   0.911821  -1.735265  -1.407566
   36  H  4  S    0.000000   0.952315  -1.450185  -4.862950   3.261245
   37  H  4  S    0.000000  -1.733039  -0.372079   0.590073  -0.081989
   38  H  4  X   -0.778701   0.000000   0.000000   0.000000   0.000000
   39  H  4  Y    0.000000   0.000000   0.000000   0.000000   0.000000
   40  H  4  Z    0.000000  -0.956223   0.911821   1.735265  -1.407566
 ...... END OF RHF CALCULATION ......
 STEP CPU TIME =     0.31 TOTAL CPU TIME =        0.7 (    0.0 MIN)
 TOTAL WALL CLOCK TIME=        1.3 SECONDS, CPU UTILIZATION IS  59.24%

     ----------------------------------------------------------------
     PROPERTY VALUES FOR THE RHF   SELF-CONSISTENT FIELD WAVEFUNCTION
     ----------------------------------------------------------------

          -----------------
          ENERGY COMPONENTS
          -----------------

         WAVEFUNCTION NORMALIZATION =       1.0000000000

                ONE ELECTRON ENERGY =    -169.6120916493
                TWO ELECTRON ENERGY =      58.8210653053
           NUCLEAR REPULSION ENERGY =      34.8075714017
                                      ------------------
                       TOTAL ENERGY =     -75.9834549423

 ELECTRON-ELECTRON POTENTIAL ENERGY =      58.8210653053
  NUCLEUS-ELECTRON POTENTIAL ENERGY =    -250.6447300825
   NUCLEUS-NUCLEUS POTENTIAL ENERGY =      34.8075714017
                                      ------------------
             TOTAL POTENTIAL ENERGY =    -157.0160933755
               TOTAL KINETIC ENERGY =      81.0326384331
                 VIRIAL RATIO (V/T) =       1.9376895090

  ...... PI ENERGY ANALYSIS ......

 ENERGY ANALYSIS:
            FOCK ENERGY=    -51.9699609872
          BARE H ENERGY=   -169.6120916493
     ELECTRONIC ENERGY =   -110.7910263183
         KINETIC ENERGY=     81.0326384331
          N-N REPULSION=     34.8075714017
           TOTAL ENERGY=    -75.9834549165
        SIGMA PART(1+2)=    -93.9158835808
               (K,V1,2)=     75.6358384099   -213.6896940943     44.1379721035
           PI PART(1+2)=    -16.8751427374
               (K,V1,2)=      5.3968000232    -36.9550359882     14.6830932275
  SIGMA SKELETON, ERROR=    -59.1083121791      0.0000000000
             MIXED PART= 0.00000E+00 0.00000E+00 0.00000E+00 0.00000E+00
 ...... END OF PI ENERGY ANALYSIS ......

          ---------------------------------------
          MULLIKEN AND LOWDIN POPULATION ANALYSES
          ---------------------------------------

     MULLIKEN ATOMIC POPULATION IN EACH MOLECULAR ORBITAL

                      1          2          3          4          5

                  2.000000   2.000000   2.000000   2.000000   2.000000

    1             0.999169   0.999388   0.909688   0.435513   0.507976
    2             0.999169   0.999388   0.909688   0.435513   0.507976
    3             0.000831   0.000612   0.090312   0.564487   0.492024
    4             0.000831   0.000612   0.090312   0.564487   0.492024

                      6          7

                  2.000000   2.000000

    1             0.992662   0.992662
    2             0.992662   0.992662
    3             0.007338   0.007338
    4             0.007338   0.007338

               ----- POPULATIONS IN EACH AO -----
                             MULLIKEN      LOWDIN
              1  C  1  S      1.99870     1.69036
              2  C  1  S      0.59668     0.55476
              3  C  1  S      0.54355     0.23267
              4  C  1  X      0.74536     0.63033
              5  C  1  Y      0.74536     0.63033
              6  C  1  Z      0.99723     0.90850
              7  C  1  X      0.22387     0.27670
              8  C  1  Y      0.22387     0.27670
              9  C  1  Z     -0.25130     0.27383
             10  C  1 XX     -0.00555     0.08470
             11  C  1 YY     -0.00555     0.08470
             12  C  1 ZZ     -0.02202     0.31125
             13  C  1 XY      0.00000     0.00000
             14  C  1 XZ      0.02343     0.06252
             15  C  1 YZ      0.02343     0.06252
             16  C  2  S      1.99870     1.69036
             17  C  2  S      0.59668     0.55476
             18  C  2  S      0.54355     0.23267
             19  C  2  X      0.74536     0.63033
             20  C  2  Y      0.74536     0.63033
             21  C  2  Z      0.99723     0.90850
             22  C  2  X      0.22387     0.27670
             23  C  2  Y      0.22387     0.27670
             24  C  2  Z     -0.25130     0.27383
             25  C  2 XX     -0.00555     0.08470
             26  C  2 YY     -0.00555     0.08470
             27  C  2 ZZ     -0.02202     0.31125
             28  C  2 XY      0.00000     0.00000
             29  C  2 XZ      0.02343     0.06252
             30  C  2 YZ      0.02343     0.06252
             31  H  3  S      0.86685     0.59579
             32  H  3  S      0.25333     0.21571
             33  H  3  X      0.00734     0.03045
             34  H  3  Y      0.00734     0.03045
             35  H  3  Z      0.02809     0.04771
             36  H  4  S      0.86685     0.59579
             37  H  4  S      0.25333     0.21571
             38  H  4  X      0.00734     0.03045
             39  H  4  Y      0.00734     0.03045
             40  H  4  Z      0.02809     0.04771

          ----- MULLIKEN ATOMIC OVERLAP POPULATIONS -----
          (OFF-DIAGONAL ELEMENTS NEED TO BE MULTIPLIED BY 2)

             1           2           3           4

    1    5.1897611
    2    0.3249676   5.1897611
    3    0.5736139  -0.2512829   0.8327817
    4   -0.2512829   0.5736139   0.0078275   0.8327817

          TOTAL MULLIKEN AND LOWDIN ATOMIC POPULATIONS
       ATOM         MULL.POP.    CHARGE          LOW.POP.     CHARGE
    1 C             5.837060    0.162940         6.079896   -0.079896
    2 C             5.837060    0.162940         6.079896   -0.079896
    3 H             1.162940   -0.162940         0.920104    0.079896
    4 H             1.162940   -0.162940         0.920104    0.079896

          -------------------------------
          BOND ORDER AND VALENCE ANALYSIS     BOND ORDER THRESHOLD=0.050
          -------------------------------

                   BOND                       BOND                       BOND
  ATOM PAIR DIST  ORDER      ATOM PAIR DIST  ORDER      ATOM PAIR DIST  ORDER
    1   2  0.800  2.765        1   3  0.900  1.257        1   4  1.700 -0.319
    2   3  1.700 -0.319        2   4  0.900  1.257

                       TOTAL       BONDED        FREE
      ATOM            VALENCE     VALENCE     VALENCE
    1 C                 3.703       3.703       0.000
    2 C                 3.703       3.703       0.000
    3 H                 0.940       0.940       0.000
    4 H                 0.940       0.940       0.000

          ---------------------
          ELECTROSTATIC MOMENTS
          ---------------------

 POINT   1           X           Y           Z (BOHR)    CHARGE
                 0.000000    0.000000    0.000000        0.00 (A.U.)
         DX          DY          DZ         /D/  (DEBYE)
     0.000000    0.000000    0.000000    0.000000
 ...... END OF PROPERTY EVALUATION ......
 STEP CPU TIME =     0.02 TOTAL CPU TIME =        0.8 (    0.0 MIN)
 TOTAL WALL CLOCK TIME=        1.4 SECONDS, CPU UTILIZATION IS  56.32%

 REGENERATING AO INTEGRALS W/O SYMMETRY FOR THIS NON-ABELIAN POINT GROUP...

          --------------------
          2 ELECTRON INTEGRALS
          --------------------

 THE -PK- OPTION IS OFF, THE INTEGRALS ARE NOT IN SUPERMATRIX FORM.
 STORING   15000 INTEGRALS/RECORD ON DISK, USING 12 BYTES/INTEGRAL.
 TWO ELECTRON INTEGRAL EVALUATION REQUIRES   90567 WORDS OF MEMORY.
 II,JST,KST,LST =  1  1  1  1 NREC =         1 INTLOC =    1
 II,JST,KST,LST =  2  1  1  1 NREC =         1 INTLOC =    2
 II,JST,KST,LST =  3  1  1  1 NREC =         1 INTLOC =    7
 II,JST,KST,LST =  4  1  1  1 NREC =         1 INTLOC =   22
 II,JST,KST,LST =  5  1  1  1 NREC =         1 INTLOC =   67
 II,JST,KST,LST =  6  1  1  1 NREC =         1 INTLOC =  214
 II,JST,KST,LST =  7  1  1  1 NREC =         1 INTLOC = 1189
 II,JST,KST,LST =  8  1  1  1 NREC =         1 INTLOC = 1867
 II,JST,KST,LST =  9  1  1  1 NREC =         1 INTLOC = 2713
 II,JST,KST,LST = 10  1  1  1 NREC =         1 INTLOC = 3757
 II,JST,KST,LST = 11  1  1  1 NREC =         1 INTLOC = 7134
 II,JST,KST,LST = 12  1  1  1 NREC =         1 INTLOC =12131
 II,JST,KST,LST = 13  1  1  1 NREC =         2 INTLOC =13698
 II,JST,KST,LST = 14  1  1  1 NREC =         3 INTLOC = 3405
 II,JST,KST,LST = 15  1  1  1 NREC =         3 INTLOC = 8693
 II,JST,KST,LST = 16  1  1  1 NREC =         4 INTLOC = 9802
 II,JST,KST,LST = 17  1  1  1 NREC =         5 INTLOC = 2283
 II,JST,KST,LST = 18  1  1  1 NREC =         5 INTLOC =10556
 TOTAL NUMBER OF NONZERO TWO-ELECTRON INTEGRALS =               94974
          7 INTEGRAL RECORDS WERE STORED ON DISK FILE  8.
  ...... END OF TWO-ELECTRON INTEGRALS .....
 STEP CPU TIME =     0.28 TOTAL CPU TIME =        1.0 (    0.0 MIN)
 TOTAL WALL CLOCK TIME=        1.6 SECONDS, CPU UTILIZATION IS  63.74%

 ----------------   ----------------------------------------------------
 RHF-MP2 GRADIENT   PROGRAM WRITTEN BY A.MARQUEZ, S.MALUENDES, M.DUPUIS,
                    AND S.P.WEBB
 ----------------   ----------------------------------------------------

 # CORE ORBITALS      =    2
 # OCCUPIED ORBITALS  =    5
 # MOLECULAR ORBITALS =   40
 # BASIS FUNCTIONS    =   40

 MEMORY REQUIREMENTS FOR MP2 TRANSFORMATION
  MINIMUM=     68985 WORDS, USING 1 ORBITAL PER PASS
  MAXIMUM=    200845 WORDS, USING ONLY 1 AO INTEGRAL PASS
 EACH ADDITIONAL     32965 WORDS REDUCES PASS COUNT BY 1.

 MP2 ENERGY/GRADIENT TEI TRANSFORMATION
 # OF WORDS AVAILABLE      =     999962
 # OF WORDS USED           =     201176
 # OF ORBITALS/PASS        =          5
 # OF INTEGRAL PASSES      =          1
 THRESHOLD FOR KEEPING TRANSFORMED 2E- INTEGRALS =  1.000E-09

 PASS #   1 TOOK      0.08 SECONDS.

 RESULTS OF MOLLER-PLESSET 2ND ORDER CORRECTION ARE
               E(0)=       -75.9834549423
               E(1)=         0.0
               E(2)=        -0.2036721439
             E(MP2)=       -76.1871270863

 DONE WITH -MP2- GRADIENT TEI TRANFORMATION
          0 NON-ZERO [IJ|AB] INTEGRALS WRITTEN TO FILE 15
       5885 NON-ZERO [AI|BJ] INTEGRALS WRITTEN TO FILE  9
 ..... DONE WITH MP2 ENERGY .....
 STEP CPU TIME =     0.09 TOTAL CPU TIME =        1.1 (    0.0 MIN)
 TOTAL WALL CLOCK TIME=        1.8 SECONDS, CPU UTILIZATION IS  64.61%

          ---------------------
          CPHF FOR MP2 GRADIENT
          ---------------------

 -MP2- LAGRANGIAN     TOOK =      0.000 SECONDS

 ..... SOLVING CPHF IN THE AO BASIS .....
 MAXIMUM Z-VECTOR ERROR= 1.842460E-04
 ..... INITIATING DIIS PROCEDURE .....
 MAXIMUM Z-VECTOR ERROR= 5.023989E-05
 MAXIMUM Z-VECTOR ERROR= 1.405108E-05
 MAXIMUM Z-VECTOR ERROR= 3.834792E-06
 MAXIMUM Z-VECTOR ERROR= 4.746576E-07
 MAXIMUM Z-VECTOR ERROR= 5.073670E-08
 MAXIMUM Z-VECTOR ERROR= 4.622029E-09
 MAXIMUM Z-VECTOR ERROR= 2.315626E-10
 MAXIMUM Z-VECTOR ERROR= 1.738985E-11
 .....   9 CPHF DIIS ITERATIONS CARRIED OUT .....

 -MP2- CPHF EQUATIONS TOOK =      0.062 SECONDS
 -MP2- W2(OCC,OCC)    TOOK =      0.000 SECONDS
 ..... DONE WITH MP2 CPHF AND DENSITY .....
 STEP CPU TIME =     0.06 TOTAL CPU TIME =        1.2 (    0.0 MIN)
 TOTAL WALL CLOCK TIME=        1.9 SECONDS, CPU UTILIZATION IS  63.12%

 MP2 NATURAL ORBITAL OCCUPATION NUMBERS ARE
  2.0000 2.0000 1.9887 1.9787 1.9775 1.9667 1.9667 0.0202 0.0202 0.0123
  0.0094 0.0088 0.0088 0.0066 0.0062 0.0062 0.0061 0.0026 0.0026 0.0018
  0.0018 0.0017 0.0012 0.0010 0.0010 0.0005 0.0004 0.0004 0.0003 0.0003
  0.0003 0.0002 0.0001 0.0001 0.0001 0.0001 0.0000 0.0000 0.0000 0.0000
 THERE ARE    13.8783 ELECTRONS IN PRINCIPAL MP2 NATURAL ORBITALS.
 THERE ARE     0.1217 ELECTRONS IN SECONDARY MP2 NATURAL ORBITALS.
 THE MP2 NATURAL ORBITALS HAVE BEEN PUNCHED.

 FORMING NON-SEPARABLE PART OF THE MP2 2ND ORDER DENSITY MATRIX...
        47458 -2DM- ELEMENTS WRITTEN ON FILE 16
 ..... DONE WITH MP2 2DM .....
 STEP CPU TIME =     0.09 TOTAL CPU TIME =        1.3 (    0.0 MIN)
 TOTAL WALL CLOCK TIME=        2.0 SECONDS, CPU UTILIZATION IS  64.85%

     -------------------------------------------------
     MP2 PROPERTIES...FOR THE FIRST ORDER WAVEFUNCTION
          USING THE RESPONSE (OR RELAXED) DENSITY
     -------------------------------------------------

          -----------------
          ENERGY COMPONENTS
          -----------------

         WAVEFUNCTION NORMALIZATION =       1.0000000000

                ONE ELECTRON ENERGY =    -169.3710962681
                TWO ELECTRON ENERGY =      58.3763977801
           NUCLEAR REPULSION ENERGY =      34.8075714017
                                      ------------------
                       TOTAL ENERGY =     -76.1871270863

 ELECTRON-ELECTRON POTENTIAL ENERGY =      58.3763977801
  NUCLEUS-ELECTRON POTENTIAL ENERGY =    -250.5199790497
   NUCLEUS-NUCLEUS POTENTIAL ENERGY =      34.8075714017
                                      ------------------
             TOTAL POTENTIAL ENERGY =    -157.3360098678
               TOTAL KINETIC ENERGY =      81.1488827816
                 VIRIAL RATIO (V/T) =       1.9388561429

          ---------------------------------------
          MULLIKEN AND LOWDIN POPULATION ANALYSES
          ---------------------------------------

               ----- POPULATIONS IN EACH AO -----
                             MULLIKEN      LOWDIN
              1  C  1  S      1.99910     1.69031
              2  C  1  S      0.60590     0.55571
              3  C  1  S      0.56213     0.23361
              4  C  1  X      0.74621     0.62864
              5  C  1  Y      0.74621     0.62864
              6  C  1  Z      0.99089     0.90111
              7  C  1  X      0.22442     0.27624
              8  C  1  Y      0.22442     0.27624
              9  C  1  Z     -0.26861     0.27465
             10  C  1 XX     -0.00462     0.08784
             11  C  1 YY     -0.00462     0.08784
             12  C  1 ZZ     -0.03132     0.30838
             13  C  1 XY      0.00364     0.00364
             14  C  1 XZ      0.02147     0.06277
             15  C  1 YZ      0.02147     0.06277
             16  C  2  S      1.99910     1.69031
             17  C  2  S      0.60590     0.55571
             18  C  2  S      0.56213     0.23361
             19  C  2  X      0.74621     0.62864
             20  C  2  Y      0.74621     0.62864
             21  C  2  Z      0.99089     0.90111
             22  C  2  X      0.22442     0.27624
             23  C  2  Y      0.22442     0.27624
             24  C  2  Z     -0.26861     0.27465
             25  C  2 XX     -0.00462     0.08784
             26  C  2 YY     -0.00462     0.08784
             27  C  2 ZZ     -0.03132     0.30838
             28  C  2 XY      0.00364     0.00364
             29  C  2 XZ      0.02147     0.06277
             30  C  2 YZ      0.02147     0.06277
             31  H  3  S      0.85247     0.58658
             32  H  3  S      0.26621     0.21923
             33  H  3  X      0.00834     0.03278
             34  H  3  Y      0.00834     0.03278
             35  H  3  Z      0.02795     0.05024
             36  H  4  S      0.85247     0.58658
             37  H  4  S      0.26621     0.21923
             38  H  4  X      0.00834     0.03278
             39  H  4  Y      0.00834     0.03278
             40  H  4  Z      0.02795     0.05024

          ----- MULLIKEN ATOMIC OVERLAP POPULATIONS -----
          (OFF-DIAGONAL ELEMENTS NEED TO BE MULTIPLIED BY 2)

             1           2           3           4

    1    5.7515760
    2   -0.1978543   5.7515760
    3    0.5827358  -0.2997727   0.8719600
    4   -0.2997727   0.5827358   0.0083921   0.8719600

          TOTAL MULLIKEN AND LOWDIN ATOMIC POPULATIONS
       ATOM         MULL.POP.    CHARGE          LOW.POP.     CHARGE
    1 C             5.836685    0.163315         6.078391   -0.078391
    2 C             5.836685    0.163315         6.078391   -0.078391
    3 H             1.163315   -0.163315         0.921609    0.078391
    4 H             1.163315   -0.163315         0.921609    0.078391

          -------------------------------
          BOND ORDER AND VALENCE ANALYSIS     BOND ORDER THRESHOLD=0.050
          -------------------------------

                   BOND                       BOND                       BOND
  ATOM PAIR DIST  ORDER      ATOM PAIR DIST  ORDER      ATOM PAIR DIST  ORDER
    1   2  0.800  2.633        1   3  0.900  1.245        1   4  1.700 -0.339
    2   3  1.700 -0.339        2   4  0.900  1.245

                       TOTAL       BONDED        FREE
      ATOM            VALENCE     VALENCE     VALENCE
    1 C                 3.743       3.540       0.204
    2 C                 3.743       3.540       0.204
    3 H                 0.946       0.909       0.037
    4 H                 0.946       0.909       0.037

          ---------------------
          ELECTROSTATIC MOMENTS
          ---------------------

 POINT   1           X           Y           Z (BOHR)    CHARGE
                 0.000000    0.000000    0.000000        0.00 (A.U.)
         DX          DY          DZ         /D/  (DEBYE)
     0.000000    0.000000    0.000000    0.000000
 ...... END OF PROPERTY EVALUATION ......
 STEP CPU TIME =     0.02 TOTAL CPU TIME =        1.3 (    0.0 MIN)
 TOTAL WALL CLOCK TIME=        2.0 SECONDS, CPU UTILIZATION IS  65.13%

 BEGINNING ONE ELECTRON GRADIENT...
 ..... END OF 1-ELECTRON GRADIENT ......
 STEP CPU TIME =     0.01 TOTAL CPU TIME =        1.3 (    0.0 MIN)
 TOTAL WALL CLOCK TIME=        2.1 SECONDS, CPU UTILIZATION IS  64.37%

          ----------------------
          GRADIENT OF THE ENERGY
          ----------------------
 MP2 MEMORY ALLOCATION FOR 2E- GRADIENT INTEGRALS.  (    5 OCCUPIED MO-S)
 MINIMUM MEMORY =         186345 (ONE OCCUPIED MO/DERIVATIVE INTEGRAL PASS)
 MAXIMUM MEMORY =         317545 (ALL OCCUPIED MO-S IN A SINGLE PASS)
    MEMORY USED =         317545, WITH     1 DERIVATIVE PASSES,    5 MO-S/PASS
 THE COARSE/FINE SCHWARZ SCREENINGS SKIPPED          0/         0 BLOCKS.
 THE NUMBER OF GRADIENT INTEGRAL BLOCKS COMPUTED WAS      7164

 ...... END OF 2-ELECTRON GRADIENT ......
 STEP CPU TIME =     0.47 TOTAL CPU TIME =        1.8 (    0.0 MIN)
 TOTAL WALL CLOCK TIME=        2.5 SECONDS, CPU UTILIZATION IS  70.51%

          NSERCH=  0     ENERGY=     -76.1871271

                                 -----------------------
                                 GRADIENT (HARTREE/BOHR)
                                 -----------------------
        ATOM     ZNUC       DE/DX         DE/DY         DE/DZ
 --------------------------------------------------------------
  1  C            6.0     0.0000000     0.0000000     2.9226249
  2  C            6.0     0.0000000     0.0000000    -2.9226249
  3  H            1.0     0.0000000     0.0000000     0.2187645
  4  H            1.0     0.0000000     0.0000000    -0.2187645


                     --------------------
                     INTERNAL COORDINATES
                     --------------------

                 - - ATOMS - -         COORDINATE        GRADIENT
 NO.   TYPE    I  J  K  L  M  N         (ANG,DEG)     (H/B,H/RAD)
 ----------------------------------------------------------------
   1 STRETCH   1  2                     0.8000000      -3.1413894
   2 STRETCH   1  3                     0.9000000      -0.2187645
   3 STRETCH   2  4                     0.9000000      -0.2187645
   4 LIN.BEND  3  1  2                180.0000000       0.0000000
   5 LIN.BEND  3  1  2                180.0000000       0.0000000
   6 LIN.BEND  4  2  3                180.0000000       0.0000000
   7 LIN.BEND  4  2  3                180.0000000       0.0000000

 NOTE: CARTESIAN GRADIENTS ARE ALWAYS TAKEN TO TEST CONVERGENCE,
       SO THE FOLLOWING GRADIENTS ARE CARTESIAN.

          MAXIMUM GRADIENT =  2.9226249    RMS GRADIENT = 1.1964945
          FORCE CONSTANT MATRIX NOT UPDATED --- TAKING FIRST STEP
          MIN SEARCH, CORRECT HESSIAN, TRYING PURE NR STEP
               NR STEP HAS LENGTH         =   2.115389
          TRIM/QA LAMBDA FOR NON-TS MODES =  -8.98469124
          TRIM/QA STEP HAS LENGTH         =   0.300000
          RADIUS OF STEP TAKEN=   0.30000  CURRENT TRUST RADIUS=   0.30000
          TRANSFORMING DISPLACEMENT FROM INTERNALS TO CARTESIANS
          THE ROOT MEAN SQUARE ERROR IN ITERATION   1 IS   0.00000000

 BEGINNING GEOMETRY SEARCH POINT NSERCH=   1 ...

 COORDINATES OF SYMMETRY UNIQUE ATOMS (ANGS)
   ATOM   CHARGE       X              Y              Z
 ------------------------------------------------------------
 C           6.0   0.0000000000   0.0000000000   0.4791416961
 H           1.0   0.0000000000   0.0000000000   1.3852437096
 COORDINATES OF ALL ATOMS ARE (ANGS)
   ATOM   CHARGE       X              Y              Z
 ------------------------------------------------------------
 C           6.0   0.0000000000   0.0000000000  -0.4791416961
 C           6.0   0.0000000000   0.0000000000   0.4791416961
 H           1.0   0.0000000000   0.0000000000  -1.3852437096
 H           1.0   0.0000000000   0.0000000000   1.3852437096


                     --------------------
                     INTERNAL COORDINATES
                     --------------------

                 - - ATOMS - -         COORDINATE      COORDINATE
 NO.   TYPE    I  J  K  L  M  N        (BOHR,RAD)       (ANG,DEG)
 ----------------------------------------------------------------
   1 STRETCH   1  2                     1.8108930       0.9582834
   2 STRETCH   1  3                     1.7122845       0.9061020
   3 STRETCH   2  4                     1.7122845       0.9061020
   4 LIN.BEND  3  1  2                  3.1415927     180.0000000
   5 LIN.BEND  3  1  2                  3.1415927     180.0000000
   6 LIN.BEND  4  2  3                  3.1415927     180.0000000
   7 LIN.BEND  4  2  3                  3.1415927     180.0000000

          INTERNUCLEAR DISTANCES (ANGS.)
          ------------------------------

                1 C          2 C          3 H          4 H     

   1 C       0.0000000    0.9582834 *  0.9061020 *  1.8643854 *
   2 C       0.9582834 *  0.0000000    1.8643854 *  0.9061020 *
   3 H       0.9061020 *  1.8643854 *  0.0000000    2.7704874 *
   4 H       1.8643854 *  0.9061020 *  2.7704874 *  0.0000000  

  * ... LESS THAN  3.000

 ...... END OF ONE-ELECTRON INTEGRALS ......
 STEP CPU TIME =     0.02 TOTAL CPU TIME =        1.8 (    0.0 MIN)
 TOTAL WALL CLOCK TIME=        2.6 SECONDS, CPU UTILIZATION IS  69.85%
 TOTAL NUMBER OF NONZERO TWO-ELECTRON INTEGRALS =               48332
          4 INTEGRAL RECORDS WERE STORED ON DISK FILE  8.
  ...... END OF TWO-ELECTRON INTEGRALS .....
 STEP CPU TIME =     0.13 TOTAL CPU TIME =        1.9 (    0.0 MIN)
 TOTAL WALL CLOCK TIME=        2.8 SECONDS, CPU UTILIZATION IS  70.03%

          --------------------------
                 RHF SCF CALCULATION
          --------------------------
     DENSITY MATRIX CONV=  5.00E-05

 ITER EX DEM     TOTAL ENERGY        E CHANGE  DENSITY CHANGE    DIIS ERROR
          * * *   INITIATING DIIS PROCEDURE   * * *
   1  0  0      -76.5463082432   -76.5463082432   0.087606953   0.136143650
   2  1  0      -76.5743889263    -0.0280806830   0.016775709   0.032998928
   3  2  0      -76.5763613928    -0.0019724665   0.005911094   0.009120301
   4  3  0      -76.5765177473    -0.0001563545   0.004893065   0.001521421
   5  4  0      -76.5765249199    -0.0000071726   0.000816182   0.000225790
   6  5  0      -76.5765250224    -0.0000001025   0.000011404   0.000017143
   7  6  0      -76.5765250228    -0.0000000004   0.000001039   0.000001580

          -----------------
          DENSITY CONVERGED
          -----------------
     TIME TO FORM FOCK OPERATORS=       0.0 SECONDS (       0.0 SEC/ITER)
     TIME TO SOLVE SCF EQUATIONS=       0.0 SECONDS (       0.0 SEC/ITER)

 FINAL RHF ENERGY IS      -76.5765250228 AFTER   7 ITERATIONS
 ...... END OF RHF CALCULATION ......
 STEP CPU TIME =     0.05 TOTAL CPU TIME =        2.0 (    0.0 MIN)
 TOTAL WALL CLOCK TIME=        2.8 SECONDS, CPU UTILIZATION IS  70.53%

 REGENERATING AO INTEGRALS W/O SYMMETRY FOR THIS NON-ABELIAN POINT GROUP...
 TOTAL NUMBER OF NONZERO TWO-ELECTRON INTEGRALS =               94971
          7 INTEGRAL RECORDS WERE STORED ON DISK FILE  8.
  ...... END OF TWO-ELECTRON INTEGRALS .....
 STEP CPU TIME =     0.28 TOTAL CPU TIME =        2.3 (    0.0 MIN)
 TOTAL WALL CLOCK TIME=        3.1 SECONDS, CPU UTILIZATION IS  73.21%

 ----------------   ----------------------------------------------------
 RHF-MP2 GRADIENT   PROGRAM WRITTEN BY A.MARQUEZ, S.MALUENDES, M.DUPUIS,
                    AND S.P.WEBB
 ----------------   ----------------------------------------------------

 RESULTS OF MOLLER-PLESSET 2ND ORDER CORRECTION ARE
               E(0)=       -76.5765250228
               E(1)=         0.0
               E(2)=        -0.2218563076
             E(MP2)=       -76.7983813305

 ..... DONE WITH MP2 ENERGY .....
 STEP CPU TIME =     0.06 TOTAL CPU TIME =        2.3 (    0.0 MIN)
 TOTAL WALL CLOCK TIME=        3.2 SECONDS, CPU UTILIZATION IS  73.76%

 ..... SOLVING CPHF IN THE AO BASIS .....
 ..... INITIATING DIIS PROCEDURE .....
 .....   9 CPHF DIIS ITERATIONS CARRIED OUT .....

 ..... DONE WITH MP2 CPHF AND DENSITY .....
 STEP CPU TIME =     0.08 TOTAL CPU TIME =        2.4 (    0.0 MIN)
 TOTAL WALL CLOCK TIME=        3.2 SECONDS, CPU UTILIZATION IS  74.37%
 ..... DONE WITH MP2 2DM .....
 STEP CPU TIME =     0.05 TOTAL CPU TIME =        2.5 (    0.0 MIN)
 TOTAL WALL CLOCK TIME=        3.3 SECONDS, CPU UTILIZATION IS  74.76%
 ..... END OF 1-ELECTRON GRADIENT ......
 STEP CPU TIME =     0.02 TOTAL CPU TIME =        2.5 (    0.0 MIN)
 TOTAL WALL CLOCK TIME=        3.3 SECONDS, CPU UTILIZATION IS  74.89%

 ...... END OF 2-ELECTRON GRADIENT ......
 STEP CPU TIME =     0.42 TOTAL CPU TIME =        2.9 (    0.0 MIN)
 TOTAL WALL CLOCK TIME=        3.7 SECONDS, CPU UTILIZATION IS  77.71%

          NSERCH=  1     ENERGY=     -76.7983813

                                 -----------------------
                                 GRADIENT (HARTREE/BOHR)
                                 -----------------------
        ATOM     ZNUC       DE/DX         DE/DY         DE/DZ
 --------------------------------------------------------------
  1  C            6.0     0.0000000     0.0000000     0.9572675
  2  C            6.0     0.0000000     0.0000000    -0.9572675
  3  H            1.0     0.0000000     0.0000000     0.2137472
  4  H            1.0     0.0000000     0.0000000    -0.2137472


                     --------------------
                     INTERNAL COORDINATES
                     --------------------

                 - - ATOMS - -         COORDINATE        GRADIENT
 NO.   TYPE    I  J  K  L  M  N         (ANG,DEG)     (H/B,H/RAD)
 ----------------------------------------------------------------
   1 STRETCH   1  2                     0.9582834      -1.1710147
   2 STRETCH   1  3                     0.9061020      -0.2137472
   3 STRETCH   2  4                     0.9061020      -0.2137472
   4 LIN.BEND  3  1  2                180.0000000       0.0000000
   5 LIN.BEND  3  1  2                180.0000000       0.0000000
   6 LIN.BEND  4  2  3                180.0000000       0.0000000
   7 LIN.BEND  4  2  3                180.0000000       0.0000000

 NOTE: CARTESIAN GRADIENTS ARE ALWAYS TAKEN TO TEST CONVERGENCE,
       SO THE FOLLOWING GRADIENTS ARE CARTESIAN.

          MAXIMUM GRADIENT =  0.9572675    RMS GRADIENT = 0.4004266
          HESSIAN UPDATED USING THE BFGS FORMULA
             ACTUAL ENERGY CHANGE WAS  -0.6112542442
          PREDICTED ENERGY CHANGE WAS  -0.8766477229 RATIO=  0.697
          MIN SEARCH, CORRECT HESSIAN, TRYING PURE NR STEP
               NR STEP HAS LENGTH         =   0.470688
          TRIM/QA LAMBDA FOR NON-TS MODES =  -0.37705715
          TRIM/QA STEP HAS LENGTH         =   0.300000
          RADIUS OF STEP TAKEN=   0.30000  CURRENT TRUST RADIUS=   0.30000
          TRANSFORMING DISPLACEMENT FROM INTERNALS TO CARTESIANS
          THE ROOT MEAN SQUARE ERROR IN ITERATION   1 IS   0.00000000

 BEGINNING GEOMETRY SEARCH POINT NSERCH=   2 ...

 COORDINATES OF SYMMETRY UNIQUE ATOMS (ANGS)
   ATOM   CHARGE       X              Y              Z
 ------------------------------------------------------------
 C           6.0   0.0000000000   0.0000000000   0.5238445087
 H           1.0   0.0000000000   0.0000000000   1.4956650122
 COORDINATES OF ALL ATOMS ARE (ANGS)
   ATOM   CHARGE       X              Y              Z
 ------------------------------------------------------------
 C           6.0   0.0000000000   0.0000000000  -0.5238445087
 C           6.0   0.0000000000   0.0000000000   0.5238445087
 H           1.0   0.0000000000   0.0000000000  -1.4956650122
 H           1.0   0.0000000000   0.0000000000   1.4956650122


                     --------------------
                     INTERNAL COORDINATES
                     --------------------

                 - - ATOMS - -         COORDINATE      COORDINATE
 NO.   TYPE    I  J  K  L  M  N        (BOHR,RAD)       (ANG,DEG)
 ----------------------------------------------------------------
   1 STRETCH   1  2                     1.9798452       1.0476890
   2 STRETCH   1  3                     1.8364745       0.9718205
   3 STRETCH   2  4                     1.8364745       0.9718205
   4 LIN.BEND  3  1  2                  3.1415927     180.0000000
   5 LIN.BEND  3  1  2                  3.1415927     180.0000000
   6 LIN.BEND  4  2  3                  3.1415927     180.0000000
   7 LIN.BEND  4  2  3                  3.1415927     180.0000000

          INTERNUCLEAR DISTANCES (ANGS.)
          ------------------------------

                1 C          2 C          3 H          4 H     

   1 C       0.0000000    1.0476890 *  0.9718205 *  2.0195095 *
   2 C       1.0476890 *  0.0000000    2.0195095 *  0.9718205 *
   3 H       0.9718205 *  2.0195095 *  0.0000000    2.9913300 *
   4 H       2.0195095 *  0.9718205 *  2.9913300 *  0.0000000  

  * ... LESS THAN  3.000

 ...... END OF ONE-ELECTRON INTEGRALS ......
 STEP CPU TIME =     0.00 TOTAL CPU TIME =        2.9 (    0.0 MIN)
 TOTAL WALL CLOCK TIME=        3.7 SECONDS, CPU UTILIZATION IS  77.38%
 TOTAL NUMBER OF NONZERO TWO-ELECTRON INTEGRALS =               48323
          4 INTEGRAL RECORDS WERE STORED ON DISK FILE  8.
  ...... END OF TWO-ELECTRON INTEGRALS .....
 STEP CPU TIME =     0.14 TOTAL CPU TIME =        3.0 (    0.1 MIN)
 TOTAL WALL CLOCK TIME=        3.9 SECONDS, CPU UTILIZATION IS  78.22%

          --------------------------
                 RHF SCF CALCULATION
          --------------------------
     DENSITY MATRIX CONV=  5.00E-05

 ITER EX DEM     TOTAL ENERGY        E CHANGE  DENSITY CHANGE    DIIS ERROR
          * * *   INITIATING DIIS PROCEDURE   * * *
   1  0  0      -76.7397487575   -76.7397487575   0.147148243   0.060588018
   2  1  0      -76.7474745672    -0.0077258097   0.009055316   0.018998627
   3  2  0      -76.7479576973    -0.0004831300   0.002103077   0.003590217
   4  3  0      -76.7479902309    -0.0000325336   0.001809341   0.000740475
   5  4  0      -76.7479912206    -0.0000009897   0.000315386   0.000099406
   6  5  0      -76.7479912433    -0.0000000227   0.000015230   0.000019692
   7  6  0      -76.7479912439    -0.0000000006   0.000005682   0.000000984

          -----------------
          DENSITY CONVERGED
          -----------------
     TIME TO FORM FOCK OPERATORS=       0.0 SECONDS (       0.0 SEC/ITER)
     TIME TO SOLVE SCF EQUATIONS=       0.0 SECONDS (       0.0 SEC/ITER)

 FINAL RHF ENERGY IS      -76.7479912439 AFTER   7 ITERATIONS
 ...... END OF RHF CALCULATION ......
 STEP CPU TIME =     0.05 TOTAL CPU TIME =        3.1 (    0.1 MIN)
 TOTAL WALL CLOCK TIME=        3.9 SECONDS, CPU UTILIZATION IS  78.45%

 REGENERATING AO INTEGRALS W/O SYMMETRY FOR THIS NON-ABELIAN POINT GROUP...
 TOTAL NUMBER OF NONZERO TWO-ELECTRON INTEGRALS =               94950
          7 INTEGRAL RECORDS WERE STORED ON DISK FILE  8.
  ...... END OF TWO-ELECTRON INTEGRALS .....
 STEP CPU TIME =     0.28 TOTAL CPU TIME =        3.4 (    0.1 MIN)
 TOTAL WALL CLOCK TIME=        4.2 SECONDS, CPU UTILIZATION IS  79.92%

 ----------------   ----------------------------------------------------
 RHF-MP2 GRADIENT   PROGRAM WRITTEN BY A.MARQUEZ, S.MALUENDES, M.DUPUIS,
                    AND S.P.WEBB
 ----------------   ----------------------------------------------------

 RESULTS OF MOLLER-PLESSET 2ND ORDER CORRECTION ARE
               E(0)=       -76.7479912439
               E(1)=         0.0
               E(2)=        -0.2344597193
             E(MP2)=       -76.9824509633

 ..... DONE WITH MP2 ENERGY .....
 STEP CPU TIME =     0.06 TOTAL CPU TIME =        3.4 (    0.1 MIN)
[...]
   1 STRETCH   1  2                     1.2285441       0.0000010
   2 STRETCH   1  3                     1.0742916      -0.0000025
   3 STRETCH   2  4                     1.0742916      -0.0000025
   4 LIN.BEND  3  1  2                180.0000000       0.0000000
   5 LIN.BEND  3  1  2                180.0000000       0.0000000
   6 LIN.BEND  4  2  3                180.0000000       0.0000000
   7 LIN.BEND  4  2  3                180.0000000       0.0000000

 HESSIAN MATRIX IN INTERNAL COORDINATES
 UNITS ARE HARTREE/BOHR**2, HARTREE/RADIAN**2, OR HARTREE/BOHR*RADIAN

             1           2           3           4           5

    1    1.0011556  -0.0072647  -0.0072647   0.0000000   0.0000000
    2   -0.0072647   0.4195006  -0.0000084   0.0000000   0.0000000
    3   -0.0072647  -0.0000084   0.4195006   0.0000000   0.0000000
    4    0.0000000   0.0000000   0.0000000   0.0416132   0.0000000
    5    0.0000000   0.0000000   0.0000000   0.0000000   0.0416132
    6    0.0000000   0.0000000   0.0000000   0.0000000  -0.0014113
    7    0.0000000   0.0000000   0.0000000  -0.0014113   0.0000000

             6           7

    1    0.0000000   0.0000000
    2    0.0000000   0.0000000
    3    0.0000000   0.0000000
    4    0.0000000  -0.0014113
    5   -0.0014113   0.0000000
    6    0.0548716   0.0000000
    7    0.0000000   0.0548716

 HESSIAN MATRIX IN INTERNAL COORDINATES
 UNITS ARE MILLIDYNE/ANGSTROM, MDYN-ANG/RADIAN**2, OR MDYN/RADIAN

             1           2           3           4           5

    1   15.5871323  -0.1131055  -0.1131055   0.0000000   0.0000000
    2   -0.1131055   6.5312634  -0.0001302   0.0000000   0.0000000
    3   -0.1131055  -0.0001302   6.5312634   0.0000000   0.0000000
    4    0.0000000   0.0000000   0.0000000   0.1814253   0.0000000
    5    0.0000000   0.0000000   0.0000000   0.0000000   0.1814253
    6    0.0000000   0.0000000   0.0000000   0.0000000  -0.0061530
    7    0.0000000   0.0000000   0.0000000  -0.0061530   0.0000000

             6           7

    1    0.0000000   0.0000000
    2    0.0000000   0.0000000
    3    0.0000000   0.0000000
    4    0.0000000  -0.0061530
    5   -0.0061530   0.0000000
    6    0.2392296   0.0000000
    7    0.0000000   0.2392296
 THE HESSIAN MATRIX HAS BEEN PURIFIED

          ---------------
          ENERGY GRADIENT
          ---------------

      ATOM                 E'X               E'Y               E'Z 
    1 C                0.000000000       0.000000000      -0.000003531
    2 C                0.000000000       0.000000000       0.000003531
    3 H                0.000000000       0.000000000       0.000002538
    4 H                0.000000000       0.000000000      -0.000002538

          -------------------------------
          CARTESIAN FORCE CONSTANT MATRIX
          -------------------------------

                                   1                          2
                               C                          C         
                          X        Y        Z        X        Y        Z
  1   C            X 0.035476 0.000000 0.000000-0.015608 0.000000 0.000000
                   Y 0.000000 0.035476 0.000000 0.000000-0.015608 0.000000
                   Z 0.000000 0.000000 1.435186 0.000000 0.000000-1.015677
  2   C            X-0.015608 0.000000 0.000000 0.035476 0.000000 0.000000
                   Y 0.000000-0.015608 0.000000 0.000000 0.035476 0.000000
                   Z 0.000000 0.000000-1.015677 0.000000 0.000000 1.435186
  3   H            X-0.019226 0.000000 0.000000-0.000642 0.000000 0.000000
                   Y 0.000000-0.019226 0.000000 0.000000-0.000642 0.000000
                   Z 0.000000 0.000000-0.426765 0.000000 0.000000 0.007256
  4   H            X-0.000642 0.000000 0.000000-0.019226 0.000000 0.000000
                   Y 0.000000-0.000642 0.000000 0.000000-0.019226 0.000000
                   Z 0.000000 0.000000 0.007256 0.000000 0.000000-0.426765

                                   3                          4
                               H                          H         
                          X        Y        Z        X        Y        Z
  3   H            X 0.013314 0.000000 0.000000 0.006553 0.000000 0.000000
                   Y 0.000000 0.013314 0.000000 0.000000 0.006553 0.000000
                   Z 0.000000 0.000000 0.419501 0.000000 0.000000 0.000008
  4   H            X 0.006553 0.000000 0.000000 0.013314 0.000000 0.000000
                   Y 0.000000 0.006553 0.000000 0.000000 0.013314 0.000000
                   Z 0.000000 0.000000 0.000008 0.000000 0.000000 0.419501

          ------------------------          ----------------
          DIPOLE DERIVATIVE TENSOR          (DEBYE/ANGSTROM)
          ------------------------          ----------------

        ATOM                 MU-X           MU-Y           MU-Z
     C          D/DX    -0.917909038    0.000000223    0.000000000
                D/DY    -0.000000112   -0.917909038    0.000000000
                D/DZ     0.000000000    0.000000000   -1.041830578
     C          D/DX    -0.917909038    0.000000223    0.000000000
                D/DY    -0.000000112   -0.917909038    0.000000000
                D/DZ     0.000000000    0.000000000   -1.041830578
     H          D/DX     0.917909038   -0.000000223    0.000000000
                D/DY     0.000000112    0.917909038    0.000000000
                D/DZ     0.000000000    0.000000000    1.041830578
     H          D/DX     0.917909038   -0.000000223    0.000000000
                D/DY     0.000000112    0.917909038    0.000000000
                D/DZ     0.000000000    0.000000000    1.041830578

          --------------------------------------------------------
          NORMAL COORDINATE ANALYSIS IN THE HARMONIC APPROXIMATION
          --------------------------------------------------------

          ATOMIC WEIGHTS (AMU)

    1     C                12.00000
    2     C                12.00000
    3     H                 1.00782
    4     H                 1.00782

 MODES 1 TO 5 ARE TAKEN AS ROTATIONS AND TRANSLATIONS.


 -------------------------------------------------------------------------------
         INTRINSIC VIBRATIONAL FREQUENCIES AND FORCE CONSTANTS
 FREQUENCIES AND FORCE CONSTANTS IN PARENTHESES SCALED BY 1.000 AND 1.000, RESP.
 -------------------------------------------------------------------------------
 INTERNAL COORDINATE        INTRINSIC FREQUENCIES
                                 (CM**-1)
 --------------------------------------------------

 STR.  1  2               2107.4       (2107.4    )
 STR.  1  3               3455.3       (3455.3    )
 STR.  2  4               3455.3       (3455.3    )
 LIBE  3  1  2             602.6       ( 602.6    )
 LIBE  3  1  2             602.6       ( 602.6    )
 LIBE  4  2  3             700.9       ( 700.9    )
 LIBE  4  2  3             700.9       ( 700.9    )

 --------------------------------------------------------------------
 INTERNAL COORDINATE                INTRINSIC FORCE CONSTANTS
                            (HARTREES/BOHR**2)        (MDYN/ANG)
 --------------------------------------------------------------------

 STR.  1  2                  1.0084  (  1.0084)     15.700  ( 15.700)
 STR.  1  3                  0.4201  (  0.4201)      6.540  (  6.540)
 STR.  2  4                  0.4201  (  0.4201)      6.540  (  6.540)



      ------------------------------------
      TOTAL ENERGY DISTRIBUTION MATRIX M     (VIBR. CONTRIBUTIONS SUM TO 100 %)
      ------------------------------------

 PULAY AND TOROK, ACTA CHIM. ACAD. SCI. HUNG. 47, 273-297 (1966)


                              1           2           3           4
                          0.26361E-04 0.46034E-05 0.41409E-05 0.76328E-05
                               I           I           I            

 STR.  1  2              0.00000000  0.00000000  0.00000000  0.00000000
 STR.  1  3              0.00000000  0.00000000  0.00000000  0.00000000
 STR.  2  4              0.00000000  0.00000000  0.00000000  0.00000000
 LIBE  3  1  2           0.00000000  0.00000000  0.00000000  0.00000000
 LIBE  3  1  2           0.00000000  0.00000000  0.00000000  0.00000000
 LIBE  4  2  3           0.00000000  0.00000000  0.00000000  0.00000000
 LIBE  4  2  3           0.00000000  0.00000000  0.00000000  0.00000000

                              5           6           7           8
                          0.11943E-04  538.28      538.28      751.44    

 STR.  1  2              0.00000000  0.00000000  0.00000000  0.00000000
 STR.  1  3              0.00000000  0.00000000  0.00000000  0.00000000
 STR.  2  4              0.00000000  0.00000000  0.00000000  0.00000000
 LIBE  3  1  2           0.00000000  0.73325407  0.00000000  0.00000000
 LIBE  3  1  2           0.00000000  0.00000000  0.73325407  0.26674593
 LIBE  4  2  3           0.00000000  0.00000000  0.26674593  0.73325407
 LIBE  4  2  3           0.00000000  0.26674593  0.00000000  0.00000000

                              9          10          11          12
                           751.44      1967.5      3453.0      3539.0    

 STR.  1  2              0.00000000  0.93411651  0.00000000  0.06588349
 STR.  1  3              0.00000000  0.03294174  0.50000000  0.46705826
 STR.  2  4              0.00000000  0.03294174  0.50000000  0.46705826
 LIBE  3  1  2           0.26674593  0.00000000  0.00000000  0.00000000
 LIBE  3  1  2           0.00000000  0.00000000  0.00000000  0.00000000
 LIBE  4  2  3           0.00000000  0.00000000  0.00000000  0.00000000
 LIBE  4  2  3           0.73325407  0.00000000  0.00000000  0.00000000



          ------------------------------------
          NORMAL MODES IN INTERNAL COORDINATES
          ------------------------------------


                              1           2           3           4
                          0.26361E-04 0.46034E-05 0.41409E-05 0.76328E-05
                               I           I           I            

 STR.  1  2              0.00000000  0.00000000  0.00000000  0.00000000
 STR.  1  3              0.00000000  0.00000000  0.00000000  0.00000000
 STR.  2  4              0.00000000  0.00000000  0.00000000  0.00000000
 LIBE  3  1  2           0.00000000  0.00000000  0.00000000  0.00000000
 LIBE  3  1  2           0.00000000  0.00000000  0.00000000  0.00000000
 LIBE  4  2  3           0.00000000  0.00000000  0.00000000  0.00000000
 LIBE  4  2  3           0.00000000  0.00000000  0.00000000  0.00000000

                              5           6           7           8
                          0.11943E-04  538.28      538.28      751.44    

 STR.  1  2              0.00000000  0.00000000  0.00000000  0.00000000
 STR.  1  3              0.00000000  0.00000000  0.00000000  0.00000000
 STR.  2  4              0.00000000  0.00000000  0.00000000  0.00000000
 LIBE  3  1  2           0.00000000 -0.44358873 -0.00000290 -0.00000658
 LIBE  3  1  2           0.00000000  0.00000290 -0.44358873  0.36122945
 LIBE  4  2  3           0.00000000  0.00000155 -0.23665098 -0.52974592
 LIBE  4  2  3           0.00000000 -0.23665098 -0.00000155  0.00000965

                              9          10          11          12
                           751.44      1967.5      3453.0      3539.0    

 STR.  1  2              0.00000000  0.37051169  0.00000000  0.17142856
 STR.  1  3              0.00000000  0.11051220 -0.73333795 -0.72496317
 STR.  2  4              0.00000000  0.11051220  0.73333795 -0.72496317
 LIBE  3  1  2          -0.36122945  0.00000000  0.00000000  0.00000000
 LIBE  3  1  2          -0.00000658  0.00000000  0.00000000  0.00000000
 LIBE  4  2  3           0.00000965  0.00000000  0.00000000  0.00000000
 LIBE  4  2  3           0.52974592  0.00000000  0.00000000  0.00000000

     FREQUENCIES IN CM**-1, IR INTENSITIES IN DEBYE**2/AMU-ANGSTROM**2,
     REDUCED MASSES IN AMU.

                          1           2           3           4           5
       FREQUENCY:         0.00        0.00        0.00        0.00        0.00  
    REDUCED MASS:      6.15812     2.91954     5.08407     4.25805     2.51749
    IR INTENSITY:      0.00000     0.00000     0.00000     0.00000     0.00000

  1   C            X  0.02590147 -0.01679983  0.22854250  0.06578879 -0.08009674
                   Y -0.00109289 -0.02155282 -0.07374277  0.24073267 -0.00851558
                   Z  0.19189516  0.03355095 -0.01319803  0.00045949  0.01773648
  2   C            X -0.01476572  0.01783480  0.12176813  0.04645080  0.21542327
                   Y -0.03933956  0.23717825 -0.00971531  0.07073200 -0.03209239
                   Z  0.19189516  0.03355095 -0.01319803  0.00045949  0.01773648
  3   H            X  0.06146260 -0.04708585  0.32191058  0.08269875 -0.33851210
                   Y  0.03235164 -0.24779834 -0.12973112  0.38938853  0.01210099
                   Z  0.19189516  0.03355095 -0.01319803  0.00045949  0.01773648
  4   H            X -0.05032685  0.04812082  0.02840005  0.02954085  0.47383862
                   Y -0.07278410  0.46342377  0.04627305 -0.07792386 -0.05270897
                   Z  0.19189516  0.03355095 -0.01319803  0.00045949  0.01773648

 TRANS. SAYVETZ    X  0.14485184  0.01346270  4.55677933  1.45999297  1.76030376
                   Y -0.52593824  2.80481787 -1.08560807  4.05147788 -0.52822138
                   Z  4.99227740  0.87284967 -0.34335531  0.01195394  0.46142616
               TOTAL  5.02199429  2.93752465  4.69687935  4.30652939  1.89488819

   ROT. SAYVETZ    X  0.87086874 -5.89125164 -1.45789177  3.87087929  0.53683903
                   Y -0.92598326  0.78862340 -2.43122980 -0.44032177  6.72892828
                   Z  0.00000000  0.00000000  0.00000000  0.00000000  0.00000000
               TOTAL  1.27116378  5.94380121  2.83484157  3.89584262  6.75030903

                          6           7           8           9          10
       FREQUENCY:       538.28      538.28      751.44      751.44     1967.50  
    REDUCED MASS:      1.56405     1.56405     1.08482     1.08482     4.10514
    IR INTENSITY:      0.00000     0.00000     1.81246     1.81246     0.00000

  1   C            X -0.00000083  0.12718735 -0.05681782  0.00000104  0.00000000
                   Y -0.12718735 -0.00000083 -0.00000104 -0.05681782  0.00000000
                   Z  0.00000000  0.00000000  0.00000000  0.00000000 -0.18525585
  2   C            X  0.00000083 -0.12718735 -0.05681782  0.00000104  0.00000000
                   Y  0.12718735  0.00000083 -0.00000104 -0.05681782  0.00000000
                   Z  0.00000000  0.00000000  0.00000000  0.00000000  0.18525585
  3   H            X  0.00000360 -0.55091343  0.67652012 -0.00001232  0.00000000
                   Y  0.55091343  0.00000360  0.00001232  0.67652012  0.00000000
                   Z  0.00000000  0.00000000  0.00000000  0.00000000 -0.29576804
  4   H            X -0.00000360  0.55091343  0.67652012 -0.00001232  0.00000000
                   Y -0.55091343 -0.00000360  0.00001232  0.67652012  0.00000000
                   Z  0.00000000  0.00000000  0.00000000  0.00000000  0.29576804

 TRANS. SAYVETZ    X  0.00000000  0.00000000  0.00000000  0.00000000  0.00000000
                   Y  0.00000000  0.00000000  0.00000000  0.00000000  0.00000000
                   Z  0.00000000  0.00000000  0.00000000  0.00000000  0.00000000
               TOTAL  0.00000000  0.00000000  0.00000000  0.00000000  0.00000000

   ROT. SAYVETZ    X  0.00000000  0.00000000  0.00000000  0.00000000  0.00000000
                   Y  0.00000000  0.00000000  0.00000000  0.00000000  0.00000000
                   Z  0.00000000  0.00000000  0.00000000  0.00000000  0.00000000
               TOTAL  0.00000000  0.00000000  0.00000000  0.00000000  0.00000000

                         11          12
       FREQUENCY:      3452.98     3539.03  
    REDUCED MASS:      1.08482     1.20196
    IR INTENSITY:      2.33487     0.00000

  1   C            X  0.00000000  0.00000000
                   Y  0.00000000  0.00000000
                   Z -0.05681782 -0.08571428
  2   C            X  0.00000000  0.00000000
                   Y  0.00000000  0.00000000
                   Z -0.05681782  0.08571428
  3   H            X  0.00000000  0.00000000
                   Y  0.00000000  0.00000000
                   Z  0.67652012  0.63924889
  4   H            X  0.00000000  0.00000000
                   Y  0.00000000  0.00000000
                   Z  0.67652012 -0.63924889

 TRANS. SAYVETZ    X  0.00000000  0.00000000
                   Y  0.00000000  0.00000000
                   Z  0.00000000  0.00000000
               TOTAL  0.00000000  0.00000000

   ROT. SAYVETZ    X  0.00000000  0.00000000
                   Y  0.00000000  0.00000000
                   Z  0.00000000  0.00000000
               TOTAL  0.00000000  0.00000000

 REFERENCE ON SAYVETZ CONDITIONS - A. SAYVETZ, J.CHEM.PHYS., 7, 383-389(1939).

 NOTE - THE MODES J,K ARE ORTHONORMALIZED ACCORDING TO
 SUM ON I   M(I) * (X(I,J)*X(I,K) + Y(I,J)*Y(I,K) + Z(I,J)*Z(I,K)) = DELTA(J,K)

     -------------------------------
     THERMOCHEMISTRY AT T=  298.15 K
     -------------------------------

 USING IDEAL GAS, RIGID ROTOR, HARMONIC NORMAL MODE APPROXIMATIONS.
 P=  1.01325E+05 PASCAL.
 ALL FREQUENCIES ARE SCALED BY   1.00000
 THE MOMENTS OF INERTIA ARE (IN AMU*BOHR**2)
      0.00000    52.86261    52.86261
 THE ROTATIONAL SYMMETRY NUMBER IS  2.0
 THE ROTATIONAL CONSTANTS ARE (IN GHZ)
      0.00000    34.10895    34.10895
 THE HARMONIC ZERO POINT ENERGY IS (SCALED BY   1.000)
        0.026288 HARTREE/MOLECULE     5769.473148 CM**-1/MOLECULE 
       16.495768 KCAL/MOL               69.018294 KJ/MOL

               Q               LN Q
 ELEC.     1.00000E+00       0.000000
 TRANS.    5.21562E+06      15.467168
 ROT.      9.09836E+01       4.510679
 VIB.      1.23216E+00       0.208770
 TOT.      5.84705E+08      20.186617

              E         H         G         CV        CP        S
           KJ/MOL    KJ/MOL    KJ/MOL   J/MOL-K   J/MOL-K   J/MOL-K
 ELEC.      0.000     0.000     0.000     0.000     0.000     0.000
 TRANS.     3.718     6.197   -38.342    12.472    20.786   149.386
 ROT.       2.479     2.479   -11.182     8.314     8.314    45.818
 VIB.      70.548    70.548    68.501    15.951    15.951     6.865
 TOTAL     76.745    79.224    18.977    36.737    45.052   202.070
E(T)-E(0) = H(T)-H(0) =  1529.359

              E         H         G         CV        CP        S
         KCAL/MOL  KCAL/MOL  KCAL/MOL CAL/MOL-K CAL/MOL-K CAL/MOL-K
 ELEC.      0.000     0.000     0.000     0.000     0.000     0.000
 TRANS.     0.889     1.481    -9.164     2.981     4.968    35.704
 ROT.       0.592     0.592    -2.672     1.987     1.987    10.951
 VIB.      16.861    16.861    16.372     3.812     3.812     1.641
 TOTAL     18.342    18.935     4.536     8.780    10.768    48.296
E(T)-E(0) = H(T)-H(0) =   365.525
 ......END OF NORMAL COORDINATE ANALYSIS......
 STEP CPU TIME =     0.06 TOTAL CPU TIME =       29.2 (    0.5 MIN)
 TOTAL WALL CLOCK TIME=       31.8 SECONDS, CPU UTILIZATION IS  91.89%
      440000  WORDS OF DYNAMIC MEMORY USED
 EXECUTION OF GAMESS TERMINATED NORMALLY Sat Jul 14 13:12:31 2007
 DDI: 262808 bytes (0.3 MB / 0 MWords) used by master data server.

 ----------------------------------------
 CPU timing information for all processes
 ========================================
 0: 27.593000 + 1.750000 = 29.343000
 1: 0.015000 + 0.015000 = 0.030000
 ----------------------------------------
 ddikick.x: exited gracefully.
----- accounting info -----
