Jobname.Temp
FOPT      RCOMPOUNDC                    6-31+G(d)           
Number of atoms                            I                6
Charge                                     I                0
Multiplicity                               I                1
Number of electrons                        I               20
Number of alpha electrons                  I               10
Number of beta electrons                   I               10
Atomic numbers                             I   N=           6
           8           1           1           8           1           1
Current cartesian coordinates              R   N=          18
 -1.49460140E+00  2.17276930E+00  1.71483764E+00 -3.07655728E+00  2.35331374E+00
  2.60096613E+00 -1.26488062E+00  3.61637833E+00  6.25503127E-01  2.22609926E+00
 -1.29678109E+00  1.58983793E+00  1.64406362E+00 -2.52673579E+00  2.77452424E+00
  8.93265980E-01 -1.58680303E-02  1.60984257E+00
Nuclear charges                            R   N=           6
  8.00000000E+00  1.00000000E+00  1.00000000E+00  8.00000000E+00  1.00000000E+00
  1.00000000E+00
Number of basis functions                  I               23
Number of contracted shells                I                9
Highest angular momentum                   I                2
Largest degree of contraction              I                6
Number of primitive shells                 I               20
Shell types                                I   N=           9
           0          -1          -1          -1           2           0
           0           0           0
Number of primitives per shell             I   N=           9
           6           3           1           1           1           3
           1           3           1
Shell to atom map                          I   N=           9
           1           1           1           1           1           2
           2           3           3
Primitive exponents                        R   N=          20
  5.48467170E+03  8.25234950E+02  1.88046960E+02  5.29645000E+01  1.68975700E+01
  5.79963530E+00  1.55396160E+01  3.59993360E+00  1.01376180E+00  2.70005800E-01
  8.45000000E-02  8.00000000E-01  1.87311370E+01  2.82539370E+00  6.40121700E-01
  1.61277800E-01  1.87311370E+01  2.82539370E+00  6.40121700E-01  1.61277800E-01
Contraction coefficients                   R   N=          20
  8.31735209E-01  1.53080748E+00  2.47714909E+00  3.25628025E+00  2.79289363E+00
  9.54937696E-01 -6.17933698E-01 -2.75721009E-01  8.14207643E-01  2.66956139E-01
  1.11699859E-01  1.11382493E+00  2.14935418E-01  3.64571127E-01  4.15051428E-01
  1.81380684E-01  2.14935418E-01  3.64571127E-01  4.15051428E-01  1.81380684E-01
P(S=P) Contraction coefficients            R   N=          20
  0.00000000E+00  0.00000000E+00  0.00000000E+00  0.00000000E+00  0.00000000E+00
  0.00000000E+00  3.11694559E+00  2.40143725E+00  1.05436051E+00  2.77431937E-01
  6.49398041E-02  0.00000000E+00  0.00000000E+00  0.00000000E+00  0.00000000E+00
  0.00000000E+00  0.00000000E+00  0.00000000E+00  0.00000000E+00  0.00000000E+00
Coordinates of each shell                  R   N=          27
  2.22609926E+00 -1.29678109E+00  1.58983793E+00  2.22609926E+00 -1.29678109E+00
  1.58983793E+00  2.22609926E+00 -1.29678109E+00  1.58983793E+00  2.22609926E+00
 -1.29678109E+00  1.58983793E+00  2.22609926E+00 -1.29678109E+00  1.58983793E+00
  1.64406362E+00 -2.52673579E+00  2.77452424E+00  1.64406362E+00 -2.52673579E+00
  2.77452424E+00  8.93265980E-01 -1.58680303E-02  1.60984257E+00  8.93265980E-01
 -1.58680303E-02  1.60984257E+00
SCF Energy                                 R     -7.643193716199755E+01
Alpha MO coefficients                      R   N=         529
  9.92743470E-01  2.59238447E-02 -1.02225058E-03 -4.35881498E-06  6.63757623E-04
  1.17980791E-02  5.31599552E-04 -3.26227521E-06 -3.41518912E-04 -1.07593885E-03
 -6.02488446E-04  2.42568211E-07  3.89385064E-04 -8.11527906E-03 -8.13671591E-03
 -8.10308715E-03  2.17670679E-05  1.27888975E-05  2.97476318E-05  3.98007233E-04
 -9.21483851E-04  3.97126994E-04 -8.93423306E-04 -2.09772583E-01  4.74195805E-01
 -1.06084879E-01 -4.00175720E-03  7.12273265E-02  4.39236563E-01 -5.75058714E-02
 -1.88418624E-04  3.73073704E-02  5.71360142E-02 -1.57500509E-02 -9.56969042E-04
  1.08134453E-02  1.10954687E-02  1.29754710E-02  3.11341271E-03 -7.61117884E-03
 -1.08875259E-02 -1.26554918E-02  1.46000405E-01 -3.49625173E-02  1.37074860E-01
 -3.12711796E-02 -2.62074105E-03  5.38019028E-03 -1.28603274E-01  4.59847078E-01
 -2.19059145E-01  1.20487941E-02 -6.83756620E-02  2.36824442E-01 -1.11431398E-01
  1.49865028E-03 -4.18330315E-03  1.65046513E-02 -8.14361017E-03  1.54476045E-02
  3.28090844E-04 -1.60418692E-02 -3.07536139E-02  8.65148708E-03  1.96098320E-02
 -2.39122531E-01 -1.14764359E-01  2.37529264E-01  1.16670639E-01 -8.25483601E-02
  1.88796478E-01  4.71325209E-01 -7.86200221E-03 -2.99592333E-01  3.21299500E-01
  2.83484399E-01 -5.86585651E-03 -1.79446489E-01  3.69750358E-02  6.45067374E-02
 -8.17713304E-04 -4.11731692E-02 -2.68553754E-02  1.08234078E-02 -5.00540741E-03
  9.77554820E-05  2.73341683E-02 -8.08939965E-04 -1.42772200E-01 -8.77214885E-02
 -1.46904839E-01 -9.30850299E-02  5.51342851E-07 -6.33405729E-07  3.06259434E-01
  3.11281805E-01  4.73641740E-01 -2.63138076E-06  2.06815207E-01  2.10206514E-01
  3.19846208E-01 -2.17158365E-06  5.84198616E-02  5.93755025E-02  9.03485282E-02
 -2.39279388E-02 -3.56064117E-04  2.42835410E-02 -1.42430569E-02 -1.22988990E-02
  8.90150761E-03 -2.19825684E-09  2.89225001E-06  1.68729568E-06  3.41807007E-07
  9.31210030E-02 -1.13329079E-01  1.99578289E-01 -1.50037773E-02 -1.19189691E-01
 -1.04497699E+00  2.22136119E-01 -2.28922494E-02 -1.28589338E-01  1.29255937E+00
 -3.72443109E-01 -2.94468471E-03  2.42760123E-01  3.88466130E-02  4.63319926E-02
  4.69183998E-02  3.22008514E-03  1.01720694E-02  4.72691452E-03  8.18535864E-02
  3.37134162E-02  9.41523413E-02  1.01842039E-01 -1.46452918E-05  8.51095184E-04
  8.94946521E-02 -3.02593366E-01  1.41048758E-01  1.78203538E-03  1.58480329E-01
 -5.22451821E-01  2.40978678E-01 -9.80848057E-02 -1.89587234E-01  7.89447624E-01
 -3.96473784E-01 -1.02692423E-02  6.61852922E-04  1.00485784E-02  1.92247635E-02
 -5.44370294E-03 -1.34164205E-02 -6.55249942E-02 -3.22659825E-01  7.47511200E-02
  4.27550915E-01 -8.57642539E-05  7.50867138E-05 -1.28475455E-01 -1.30901613E-01
 -1.99196848E-01  1.03038538E-03 -2.18986884E-01 -2.23123488E-01 -3.39522160E-01
 -2.52459173E-04  5.68871360E-01  5.79853360E-01  8.83257346E-01  5.85001588E-03
  1.19703618E-04 -6.15661431E-03  3.58149827E-03  3.01503372E-03 -2.14927861E-03
 -5.85536562E-05 -7.92559051E-04 -1.47791590E-05 -3.84588353E-04  5.90724375E-02
 -5.23943733E-02 -1.56653111E-01  3.23034640E-03  9.86316195E-02 -7.12146972E-01
 -2.60575827E-01  7.76534080E-03  1.62471450E-01  1.08992324E-01  1.11416507E+00
 -2.45669692E-02 -7.01900545E-01  4.49003478E-02  4.26613110E-02  3.99649073E-02
 -3.12551880E-03 -6.15253389E-03 -4.63482209E-03  2.69282042E-02  4.45494837E-01
  2.77835626E-02  4.45114363E-01 -1.17518253E-03  5.78976341E-03 -7.61016698E-02
  2.00849884E-01 -8.28267837E-02  5.24432357E-03 -1.68720102E-01  4.42067282E-01
 -1.81478891E-01  3.26262939E-01 -4.82609987E-01  1.34115975E+00 -5.69222138E-01
 -4.46728925E-03 -7.25900082E-04  1.01537555E-02  1.61327466E-02 -4.97395829E-03
 -7.55015716E-03  1.49466645E-01  1.62242076E+00 -1.82938852E-01 -2.02556808E+00
 -4.73462855E-02  5.75504926E-02 -1.94874880E-01 -2.36972019E-02  1.41577039E-01
  8.17390314E-01 -5.05567954E-01 -6.82901066E-02  3.71779816E-01  3.32681955E+00
 -9.45245432E-01 -1.11534889E-01  6.84534385E-01 -9.34840202E-04 -3.18620873E-02
 -7.77549435E-03  9.24036870E-03 -7.48606582E-03  1.60576158E-02 -1.82257469E-01
 -2.67753403E+00 -1.50631775E-01 -2.19344972E+00  1.68247531E-04  9.95714351E-02
 -2.11958871E-01  5.21300690E-01 -2.05538749E-01 -2.44975889E-01  1.99699333E-01
 -3.82663675E-01  1.22349079E-01 -2.24512095E-01  2.81886067E-01 -7.18255050E-01
  2.89775650E-01 -5.37217619E-02  1.62837751E-02  1.10541215E-01  1.64019322E-01
 -4.16007321E-02 -9.19019063E-02  6.78225486E-01 -1.49363872E+00 -8.40490569E-01
  2.03104719E+00 -3.65330243E-03 -8.15550878E-01  5.80623938E-01  4.93127425E-02
 -4.07860323E-01  1.99478041E+00 -8.13976694E-01 -1.60923487E-02  5.36922119E-01
  1.71842655E+00 -4.33465185E-01 -1.05456831E-01  3.49584724E-01 -2.16714171E-01
 -1.60186479E-01 -2.14629881E-01 -1.61134833E-02 -4.15464459E-02 -8.54674924E-02
  6.91252656E-01 -2.28593458E+00  4.81935156E-01 -1.78166103E+00  4.46733429E-03
  1.60732594E-02  1.39594872E-01 -6.98758369E-01  3.69320973E-01 -8.23462842E-02
 -2.66763226E-01  1.41233886E+00 -7.56235463E-01  2.13989836E-02  1.39842975E-01
 -6.87332309E-01  3.61546275E-01 -6.56198323E-02  1.36252231E-02  6.39839491E-02
  1.18327004E-01 -3.64664786E-02 -9.46854213E-02  4.68500249E-01 -2.18969560E-01
 -3.50638895E-01  1.99420259E-01  1.50580425E-06  3.76251041E-06 -4.62356162E-01
 -4.70132838E-01 -7.14964296E-01 -2.66104698E-05  6.92792512E-01  7.04553836E-01
  1.07125673E+00 -4.58292879E-06 -3.34020471E-01 -3.39714034E-01 -5.16506506E-01
 -2.55204246E-02  9.71014738E-05  2.54273958E-02 -1.48803773E-02 -1.32935165E-02
  9.69211768E-03  1.31843967E-04 -6.42690868E-05 -8.92474732E-05  7.20064748E-05
  1.84362755E-02 -4.64643105E-01 -5.89187420E-01  8.77116387E-02  3.23358614E-01
  8.05127389E-01  1.16642219E+00 -1.50566526E-01 -6.55311298E-01  4.64787767E-01
 -7.87775616E-01  6.78622422E-02  4.64806612E-01 -1.68568518E-01  6.52584042E-03
 -1.82559040E-01 -1.02631365E-01 -2.61152033E-03 -1.37711923E-01  5.45974426E-01
 -7.45706531E-01  6.01395152E-01 -7.47013065E-01 -8.53333716E-02 -1.50008572E+00
 -1.04329604E-01 -2.25782954E-02  8.22996614E-02  3.50362797E+00 -1.61191804E-01
  3.12184579E-02  8.37134131E-02 -1.32136412E+00  6.76709745E-02 -3.17886491E-02
 -2.28671063E-02 -4.01424822E-01 -5.80285071E-01 -3.58589361E-01  1.26859201E-01
  4.96118299E-02  1.88861739E-01 -4.82392394E-01  1.85721227E-01 -5.10788071E-01
  2.55125024E-01 -7.75499198E-03 -6.05390939E-02  1.95959017E-02 -1.88119397E-03
 -1.14343687E-02  1.83964537E-01 -1.45184165E-01  3.31012020E-03  9.16995357E-02
 -6.97231944E-02  6.02200030E-02 -2.87534375E-03 -3.70480597E-02 -5.93317163E-01
  5.36294040E-01  6.23016878E-04 -4.90121399E-02  7.40399914E-01 -1.05407561E-01
 -9.67371372E-02  3.18384150E-02 -9.91458968E-02  3.80808284E-02  5.47624373E-08
  8.32540807E-06  2.32461145E-06  2.87818323E-06  6.23292572E-06 -1.67610955E-05
  1.62588688E-03  1.63467587E-03  2.46991516E-03  7.21822238E-06 -7.54883089E-04
 -7.60221947E-04 -1.14933025E-03 -1.85079958E-01  7.31888591E-01 -5.46810195E-01
  3.07142649E-01 -3.69639608E-01  4.35597565E-01  1.45197132E-05 -4.95968343E-06
  1.02188249E-05 -3.05378945E-06  2.34701197E-08 -3.12604527E-06 -5.29103795E-03
 -5.37645599E-03 -8.18251963E-03  5.69706183E-06  3.46123237E-02  3.51885673E-02
  5.35343927E-02 -1.38452329E-06 -1.52023894E-02 -1.54574830E-02 -2.35123423E-02
  6.99422381E-01 -3.24850097E-02 -6.66938175E-01  3.91966218E-01  3.75567911E-01
 -2.81618223E-01  7.26940302E-06 -6.76469568E-06 -1.08996325E-05  6.77859730E-06
  5.59468451E-02  4.97667062E-01 -5.89258056E-02  1.50893323E-02  2.81848335E-02
 -1.50398386E+00  6.45702024E-01 -3.38922874E-02 -3.95245448E-01  2.94715934E-01
 -1.42756450E-01  2.04218668E-02  7.88870603E-02  1.45885606E-01 -2.87563665E-01
  4.89453282E-01  5.21430446E-01  3.89104264E-01  7.35554557E-01  8.36413586E-01
 -6.47526794E-02  9.05930151E-01 -1.28867770E-01 -6.52417688E-03 -1.54191806E-02
 -2.30075634E-02  5.61314018E-02 -2.20108776E-02  1.18479985E-01  1.97356204E-01
 -8.46090267E-01  4.28439405E-01 -1.61681905E-02 -9.85951973E-02  3.65885150E-01
 -1.76707398E-01 -4.82794391E-01 -4.11530387E-03  4.53672848E-01  9.07195203E-01
 -2.87611749E-01 -6.36210985E-01 -1.11876072E+00  4.47321110E-01  9.80900738E-01
 -4.49872933E-01 -4.92400183E-01  1.39117453E-01  2.87873329E-02  2.69535308E-03
 -2.03863602E-02  4.22027818E+00 -8.21947111E-02  6.10197477E-03  4.91385979E-02
 -2.02623829E-01 -2.33467325E-01 -9.52321352E-03  1.57221571E-01 -1.64030563E+00
 -1.63883823E+00 -1.65464821E+00 -1.67549070E-02 -2.15799755E-03 -3.66797234E-03
  1.67544538E-01 -6.38030326E-01  1.29765436E-01 -5.83532080E-01
Beta MO coefficients                       R   N=         529
  9.92743470E-01  2.59238447E-02 -1.02225058E-03 -4.35881498E-06  6.63757623E-04
  1.17980791E-02  5.31599552E-04 -3.26227521E-06 -3.41518912E-04 -1.07593885E-03
 -6.02488446E-04  2.42568211E-07  3.89385064E-04 -8.11527906E-03 -8.13671591E-03
 -8.10308715E-03  2.17670679E-05  1.27888975E-05  2.97476318E-05  3.98007233E-04
 -9.21483851E-04  3.97126994E-04 -8.93423306E-04 -2.09772583E-01  4.74195805E-01
 -1.06084879E-01 -4.00175720E-03  7.12273265E-02  4.39236563E-01 -5.75058714E-02
 -1.88418624E-04  3.73073704E-02  5.71360142E-02 -1.57500509E-02 -9.56969042E-04
  1.08134453E-02  1.10954687E-02  1.29754710E-02  3.11341271E-03 -7.61117884E-03
 -1.08875259E-02 -1.26554918E-02  1.46000405E-01 -3.49625173E-02  1.37074860E-01
 -3.12711796E-02 -2.62074105E-03  5.38019028E-03 -1.28603274E-01  4.59847078E-01
 -2.19059145E-01  1.20487941E-02 -6.83756620E-02  2.36824442E-01 -1.11431398E-01
  1.49865028E-03 -4.18330315E-03  1.65046513E-02 -8.14361017E-03  1.54476045E-02
  3.28090844E-04 -1.60418692E-02 -3.07536139E-02  8.65148708E-03  1.96098320E-02
 -2.39122531E-01 -1.14764359E-01  2.37529264E-01  1.16670639E-01 -8.25483601E-02
  1.88796478E-01  4.71325209E-01 -7.86200221E-03 -2.99592333E-01  3.21299500E-01
  2.83484399E-01 -5.86585651E-03 -1.79446489E-01  3.69750358E-02  6.45067374E-02
 -8.17713304E-04 -4.11731692E-02 -2.68553754E-02  1.08234078E-02 -5.00540741E-03
  9.77554820E-05  2.73341683E-02 -8.08939965E-04 -1.42772200E-01 -8.77214885E-02
 -1.46904839E-01 -9.30850299E-02  5.51342851E-07 -6.33405729E-07  3.06259434E-01
  3.11281805E-01  4.73641740E-01 -2.63138076E-06  2.06815207E-01  2.10206514E-01
  3.19846208E-01 -2.17158365E-06  5.84198616E-02  5.93755025E-02  9.03485282E-02
 -2.39279388E-02 -3.56064117E-04  2.42835410E-02 -1.42430569E-02 -1.22988990E-02
  8.90150761E-03 -2.19825684E-09  2.89225001E-06  1.68729568E-06  3.41807007E-07
  9.31210030E-02 -1.13329079E-01  1.99578289E-01 -1.50037773E-02 -1.19189691E-01
 -1.04497699E+00  2.22136119E-01 -2.28922494E-02 -1.28589338E-01  1.29255937E+00
 -3.72443109E-01 -2.94468471E-03  2.42760123E-01  3.88466130E-02  4.63319926E-02
  4.69183998E-02  3.22008514E-03  1.01720694E-02  4.72691452E-03  8.18535864E-02
  3.37134162E-02  9.41523413E-02  1.01842039E-01 -1.46452918E-05  8.51095184E-04
  8.94946521E-02 -3.02593366E-01  1.41048758E-01  1.78203538E-03  1.58480329E-01
 -5.22451821E-01  2.40978678E-01 -9.80848057E-02 -1.89587234E-01  7.89447624E-01
 -3.96473784E-01 -1.02692423E-02  6.61852922E-04  1.00485784E-02  1.92247635E-02
 -5.44370294E-03 -1.34164205E-02 -6.55249942E-02 -3.22659825E-01  7.47511200E-02
  4.27550915E-01 -8.57642539E-05  7.50867138E-05 -1.28475455E-01 -1.30901613E-01
 -1.99196848E-01  1.03038538E-03 -2.18986884E-01 -2.23123488E-01 -3.39522160E-01
 -2.52459173E-04  5.68871360E-01  5.79853360E-01  8.83257346E-01  5.85001588E-03
  1.19703618E-04 -6.15661431E-03  3.58149827E-03  3.01503372E-03 -2.14927861E-03
 -5.85536562E-05 -7.92559051E-04 -1.47791590E-05 -3.84588353E-04  5.90724375E-02
 -5.23943733E-02 -1.56653111E-01  3.23034640E-03  9.86316195E-02 -7.12146972E-01
 -2.60575827E-01  7.76534080E-03  1.62471450E-01  1.08992324E-01  1.11416507E+00
 -2.45669692E-02 -7.01900545E-01  4.49003478E-02  4.26613110E-02  3.99649073E-02
 -3.12551880E-03 -6.15253389E-03 -4.63482209E-03  2.69282042E-02  4.45494837E-01
  2.77835626E-02  4.45114363E-01 -1.17518253E-03  5.78976341E-03 -7.61016698E-02
  2.00849884E-01 -8.28267837E-02  5.24432357E-03 -1.68720102E-01  4.42067282E-01
 -1.81478891E-01  3.26262939E-01 -4.82609987E-01  1.34115975E+00 -5.69222138E-01
 -4.46728925E-03 -7.25900082E-04  1.01537555E-02  1.61327466E-02 -4.97395829E-03
 -7.55015716E-03  1.49466645E-01  1.62242076E+00 -1.82938852E-01 -2.02556808E+00
 -4.73462855E-02  5.75504926E-02 -1.94874880E-01 -2.36972019E-02  1.41577039E-01
  8.17390314E-01 -5.05567954E-01 -6.82901066E-02  3.71779816E-01  3.32681955E+00
 -9.45245432E-01 -1.11534889E-01  6.84534385E-01 -9.34840202E-04 -3.18620873E-02
 -7.77549435E-03  9.24036870E-03 -7.48606582E-03  1.60576158E-02 -1.82257469E-01
 -2.67753403E+00 -1.50631775E-01 -2.19344972E+00  1.68247531E-04  9.95714351E-02
 -2.11958871E-01  5.21300690E-01 -2.05538749E-01 -2.44975889E-01  1.99699333E-01
 -3.82663675E-01  1.22349079E-01 -2.24512095E-01  2.81886067E-01 -7.18255050E-01
  2.89775650E-01 -5.37217619E-02  1.62837751E-02  1.10541215E-01  1.64019322E-01
 -4.16007321E-02 -9.19019063E-02  6.78225486E-01 -1.49363872E+00 -8.40490569E-01
  2.03104719E+00 -3.65330243E-03 -8.15550878E-01  5.80623938E-01  4.93127425E-02
 -4.07860323E-01  1.99478041E+00 -8.13976694E-01 -1.60923487E-02  5.36922119E-01
  1.71842655E+00 -4.33465185E-01 -1.05456831E-01  3.49584724E-01 -2.16714171E-01
 -1.60186479E-01 -2.14629881E-01 -1.61134833E-02 -4.15464459E-02 -8.54674924E-02
  6.91252656E-01 -2.28593458E+00  4.81935156E-01 -1.78166103E+00  4.46733429E-03
  1.60732594E-02  1.39594872E-01 -6.98758369E-01  3.69320973E-01 -8.23462842E-02
 -2.66763226E-01  1.41233886E+00 -7.56235463E-01  2.13989836E-02  1.39842975E-01
 -6.87332309E-01  3.61546275E-01 -6.56198323E-02  1.36252231E-02  6.39839491E-02
  1.18327004E-01 -3.64664786E-02 -9.46854213E-02  4.68500249E-01 -2.18969560E-01
 -3.50638895E-01  1.99420259E-01  1.50580425E-06  3.76251041E-06 -4.62356162E-01
 -4.70132838E-01 -7.14964296E-01 -2.66104698E-05  6.92792512E-01  7.04553836E-01
  1.07125673E+00 -4.58292879E-06 -3.34020471E-01 -3.39714034E-01 -5.16506506E-01
 -2.55204246E-02  9.71014738E-05  2.54273958E-02 -1.48803773E-02 -1.32935165E-02
  9.69211768E-03  1.31843967E-04 -6.42690868E-05 -8.92474732E-05  7.20064748E-05
  1.84362755E-02 -4.64643105E-01 -5.89187420E-01  8.77116387E-02  3.23358614E-01
  8.05127389E-01  1.16642219E+00 -1.50566526E-01 -6.55311298E-01  4.64787767E-01
 -7.87775616E-01  6.78622422E-02  4.64806612E-01 -1.68568518E-01  6.52584042E-03
 -1.82559040E-01 -1.02631365E-01 -2.61152033E-03 -1.37711923E-01  5.45974426E-01
 -7.45706531E-01  6.01395152E-01 -7.47013065E-01 -8.53333716E-02 -1.50008572E+00
 -1.04329604E-01 -2.25782954E-02  8.22996614E-02  3.50362797E+00 -1.61191804E-01
  3.12184579E-02  8.37134131E-02 -1.32136412E+00  6.76709745E-02 -3.17886491E-02
 -2.28671063E-02 -4.01424822E-01 -5.80285071E-01 -3.58589361E-01  1.26859201E-01
  4.96118299E-02  1.88861739E-01 -4.82392394E-01  1.85721227E-01 -5.10788071E-01
  2.55125024E-01 -7.75499198E-03 -6.05390939E-02  1.95959017E-02 -1.88119397E-03
 -1.14343687E-02  1.83964537E-01 -1.45184165E-01  3.31012020E-03  9.16995357E-02
 -6.97231944E-02  6.02200030E-02 -2.87534375E-03 -3.70480597E-02 -5.93317163E-01
  5.36294040E-01  6.23016878E-04 -4.90121399E-02  7.40399914E-01 -1.05407561E-01
 -9.67371372E-02  3.18384150E-02 -9.91458968E-02  3.80808284E-02  5.47624373E-08
  8.32540807E-06  2.32461145E-06  2.87818323E-06  6.23292572E-06 -1.67610955E-05
  1.62588688E-03  1.63467587E-03  2.46991516E-03  7.21822238E-06 -7.54883089E-04
 -7.60221947E-04 -1.14933025E-03 -1.85079958E-01  7.31888591E-01 -5.46810195E-01
  3.07142649E-01 -3.69639608E-01  4.35597565E-01  1.45197132E-05 -4.95968343E-06
  1.02188249E-05 -3.05378945E-06  2.34701197E-08 -3.12604527E-06 -5.29103795E-03
 -5.37645599E-03 -8.18251963E-03  5.69706183E-06  3.46123237E-02  3.51885673E-02
  5.35343927E-02 -1.38452329E-06 -1.52023894E-02 -1.54574830E-02 -2.35123423E-02
  6.99422381E-01 -3.24850097E-02 -6.66938175E-01  3.91966218E-01  3.75567911E-01
 -2.81618223E-01  7.26940302E-06 -6.76469568E-06 -1.08996325E-05  6.77859730E-06
  5.59468451E-02  4.97667062E-01 -5.89258056E-02  1.50893323E-02  2.81848335E-02
 -1.50398386E+00  6.45702024E-01 -3.38922874E-02 -3.95245448E-01  2.94715934E-01
 -1.42756450E-01  2.04218668E-02  7.88870603E-02  1.45885606E-01 -2.87563665E-01
  4.89453282E-01  5.21430446E-01  3.89104264E-01  7.35554557E-01  8.36413586E-01
 -6.47526794E-02  9.05930151E-01 -1.28867770E-01 -6.52417688E-03 -1.54191806E-02
 -2.30075634E-02  5.61314018E-02 -2.20108776E-02  1.18479985E-01  1.97356204E-01
 -8.46090267E-01  4.28439405E-01 -1.61681905E-02 -9.85951973E-02  3.65885150E-01
 -1.76707398E-01 -4.82794391E-01 -4.11530387E-03  4.53672848E-01  9.07195203E-01
 -2.87611749E-01 -6.36210985E-01 -1.11876072E+00  4.47321110E-01  9.80900738E-01
 -4.49872933E-01 -4.92400183E-01  1.39117453E-01  2.87873329E-02  2.69535308E-03
 -2.03863602E-02  4.22027818E+00 -8.21947111E-02  6.10197477E-03  4.91385979E-02
 -2.02623829E-01 -2.33467325E-01 -9.52321352E-03  1.57221571E-01 -1.64030563E+00
 -1.63883823E+00 -1.65464821E+00 -1.67549070E-02 -2.15799755E-03 -3.66797234E-03
  1.67544538E-01 -6.38030326E-01  1.29765436E-01 -5.83532080E-01
Alpha Orbital Energies                     R   N=          23
 -1.91692615E+01 -1.02496754E+00 -5.40754900E-01 -3.98904938E-01 -3.19832390E-01
  2.44846015E-02  1.14344946E-01  1.55427935E-01  1.55785660E-01  2.01714762E-01
  2.44356398E-01  9.41221098E-01  1.04133305E+00  1.10852539E+00  1.11354136E+00
  1.14960470E+00  1.24811692E+00  1.70593168E+00  1.72210623E+00  1.75579572E+00
  2.27088652E+00  2.63944141E+00  3.67785285E+00
Beta Orbital Energies                      R   N=          23
 -1.91692615E+01 -1.02496754E+00 -5.40754900E-01 -3.98904938E-01 -3.19832390E-01
  2.44846015E-02  1.14344946E-01  1.55427935E-01  1.55785660E-01  2.01714762E-01
  2.44356398E-01  9.41221098E-01  1.04133305E+00  1.10852539E+00  1.11354136E+00
  1.14960470E+00  1.24811692E+00  1.70593168E+00  1.72210623E+00  1.75579572E+00
  2.27088652E+00  2.63944141E+00  3.67785285E+00
Total SCF Density                          R   N=         276
  2.07273047E+00 -1.78672983E-01  5.22413528E-01 -3.46621035E-02  7.59218596E-02
  6.87472283E-01  5.58317314E-04 -1.81636038E-03  6.58282402E-02  6.16867045E-01
  2.20452299E-02 -4.78959009E-02  4.89334693E-02  9.75454117E-02  7.34305490E-01
 -2.13963292E-01  5.38630052E-01  2.06555631E-01  2.51191352E-03 -1.35212069E-01
  5.92892990E-01 -2.12619323E-02  5.17951781E-02  4.23691491E-01  6.18736595E-02
  4.78184791E-02  1.30013196E-01  2.62236747E-01 -2.00072696E-04  1.54284952E-04
  6.23531900E-02  3.48766724E-01  9.88559240E-02  1.77080039E-03  5.12576607E-02
  2.00614077E-01  1.38802369E-02 -3.35928895E-02  4.75026167E-02  9.91648347E-02
  4.64640902E-01 -8.52335821E-02  4.15048015E-02  8.37793137E-02  2.96623105E-01
 -3.22197134E-02  6.81091706E-02  2.23474055E-02  3.38272802E-04 -1.46756549E-02
  7.39632998E-02  1.41853944E-02  2.53616607E-04 -9.34153946E-03  9.27016197E-03
 -5.21623485E-03  9.34374789E-03  1.01009460E-01  3.16344772E-02  1.62770357E-02
  2.75006371E-02  6.31204114E-02  2.18282186E-02  1.39772555E-02  2.95899172E-03
  1.56798530E-02  4.50531775E-04 -1.03881051E-03  3.15557328E-02  5.21647754E-02
  4.93680799E-02 -9.68717802E-04  2.19489258E-02  3.27895983E-02  3.45258533E-02
 -1.20613750E-04  6.72397765E-03  7.59887651E-03  3.07672964E-03 -5.35887189E-03
  1.63277807E-02  4.93189332E-02  1.15364807E-01 -1.71460451E-02  1.38973871E-02
  3.46054408E-02  7.51935138E-02 -1.83472363E-03  4.97144395E-03  1.05068032E-02
  2.00829740E-02 -1.64150912E-02  1.27942834E-04 -4.62823010E-02 -3.56050270E-04
 -1.17732621E-02 -7.32927978E-03 -2.85207009E-02 -2.43194522E-03 -8.27758307E-03
 -6.54187091E-04 -6.72941274E-03 -2.30887211E-03 -2.13022426E-03  3.44270622E-03
  3.38149123E-03 -7.51124036E-03  8.92856494E-04 -3.70917490E-02 -1.16128427E-03
 -7.36389783E-03 -7.54941710E-04 -2.05526604E-02 -2.86034387E-03 -9.54678624E-04
 -1.15451299E-03 -2.69212520E-03 -2.24542655E-03 -4.43028350E-04  2.41317902E-03
 -2.33877685E-02  1.59743313E-02  7.16383974E-03 -1.93895078E-04 -5.12864162E-03
  1.81696264E-02  4.44340621E-03 -1.26107798E-04 -3.21161673E-03  2.30161932E-03
  9.53093905E-04 -7.39920064E-05 -6.86668965E-04 -1.34155857E-04 -2.05792466E-04
  7.03899149E-04  3.50593280E-05  8.93231607E-05  1.83180160E-02 -4.27890446E-05
 -3.33700948E-02  8.20935684E-03  1.04795265E-02 -1.38942403E-03 -2.04180267E-02
  8.03181042E-04  2.36003526E-03 -1.19879203E-03 -4.84960556E-03 -8.54086574E-04
 -1.07026519E-05  3.23383370E-04  2.18361257E-03  5.39939251E-03 -1.20952719E-02
  2.33106840E-03  2.36908105E-02 -1.47726472E-03 -1.11641287E-02  1.99718187E-03
  1.30447439E-02  6.69941261E-04 -1.44731600E-03  1.17023122E-03  1.72991466E-03
  1.08202404E-03 -5.80108745E-05 -1.26722620E-03 -3.39888405E-04  3.51702276E-04
  1.24919818E-03 -1.64843047E-02  4.69954194E-04  1.36378462E-02  4.18293041E-04
  3.34635601E-02 -1.05932029E-03  9.03355394E-03  2.66850519E-03  2.11433796E-02
 -4.51251690E-05  2.23742443E-03  2.35638715E-03  5.12244180E-03 -1.18827570E-03
  2.46222335E-04  7.64905219E-05 -1.21653296E-03 -2.68023952E-04  1.89487879E-03
 -3.56389479E-02  8.20033691E-02 -1.04058079E-01 -2.18843165E-01  2.11109831E-01
  3.07592747E-02 -6.50383988E-02 -1.11640179E-01  1.15424965E-01  5.40816951E-03
 -2.10184010E-02 -7.93921034E-03  1.88092536E-02  3.51408756E-03  1.24573974E-02
  5.34899801E-04 -1.51218058E-02 -1.28427072E-02  1.00038795E-02  1.97759525E-01
  2.79228264E-02 -6.75638592E-02 -4.57509089E-02 -1.03887145E-01  9.78626786E-02
 -8.98706604E-02 -3.00198523E-02 -5.33144900E-02  5.44530925E-02 -1.08242485E-02
 -9.25429469E-03 -3.57757029E-03  8.33641023E-03  4.04884908E-04  7.57377647E-03
 -2.86651377E-03 -6.02013669E-03 -3.47416437E-03  4.35760194E-03  6.97240506E-02
  4.41782886E-02 -3.37121026E-02  7.71069098E-02 -2.28656908E-01  2.19668174E-01
  3.48628907E-03  3.17489305E-02 -1.31537000E-01  1.14177968E-01  1.00152928E-02
  5.51129090E-03 -2.52581710E-02  7.81877521E-03  1.11935013E-02  1.82641788E-02
 -1.67251214E-02  5.26598300E-04 -6.90592399E-03  6.08404643E-03 -5.30300235E-03
 -3.16230569E-02 -3.83320611E-02  1.93581715E-01  2.61022980E-02 -6.35964774E-02
 -1.11118260E-01  1.09015474E-01  2.03994526E-04 -8.44968384E-02 -6.51354275E-02
  5.63648983E-02  5.07355694E-03 -1.01054462E-02 -1.19991986E-02  4.06334142E-03
  5.08803859E-03  7.92477823E-03 -6.71831424E-03 -2.73541509E-03 -2.38915441E-03
  5.51784088E-03 -2.99159785E-03 -3.83491687E-02 -8.25986238E-03  7.42009697E-02
  4.65110912E-02
Pure Switching                             I                1
Dipole_Data                                R   N=           3
 -1.92669448E+00  3.38883478E-02  1.22356466E+00
Quadrupole_Data                            R   N=           6
 -1.08028219E+01  5.46072113E-01 -5.31134558E+00 -7.23919255E-01 -2.03815060E+00
 -4.71756430E+00
Octapole_Data                              R   N=          10
 -2.97327637E+01  6.04499462E+00 -6.53924396E+00  1.08851145E+01 -8.78553818E+00
 -1.36894272E+00 -1.92001574E+00 -7.68384411E+00  6.80122704E-01 -1.47261930E+01
Hexadecapole_Data                          R   N=          15
 -7.04795727E+01  1.84181040E+01 -1.38007963E+01  1.30475435E+01 -2.20043718E+01
 -2.56449599E+01  3.63819091E+00 -3.22946772E+00  6.02891781E+00 -1.88175527E+01
  2.25798645E+00 -4.25069768E+00 -1.93499376E+01  5.84369827E+00 -3.42996271E+01
Cartesian Forces                           R   N=           9
 -5.36988987E-03  1.64584194E-02 -7.36112430E-03 -2.23297262E-03 -1.26178317E-02
  9.71839354E-03  7.60286248E-03 -3.84058774E-03 -2.35726924E-03
Current cartesian coordinates              R   N=          18
 -1.49180353E+00  2.17031573E+00  1.72219559E+00 -3.08477013E+00  2.43648238E+00
  2.54974713E+00 -1.34863026E+00  3.63714443E+00  6.60327901E-01  2.25992393E+00
 -1.32709372E+00  1.58791369E+00  1.67989581E+00 -2.58168335E+00  2.78462034E+00
  9.12773740E-01 -3.20890037E-02  1.61070698E+00
Number of basis functions                  I               23
Number of contracted shells                I                9
Highest angular momentum                   I                2
Largest degree of contraction              I                6
Number of primitive shells                 I               20
Shell types                                I   N=           9
           0          -1          -1          -1           2           0
           0           0           0
Number of primitives per shell             I   N=           9
           6           3           1           1           1           3
           1           3           1
Shell to atom map                          I   N=           9
           1           1           1           1           1           2
           2           3           3
Primitive exponents                        R   N=          20
  5.48467170E+03  8.25234950E+02  1.88046960E+02  5.29645000E+01  1.68975700E+01
  5.79963530E+00  1.55396160E+01  3.59993360E+00  1.01376180E+00  2.70005800E-01
  8.45000000E-02  8.00000000E-01  1.87311370E+01  2.82539370E+00  6.40121700E-01
  1.61277800E-01  1.87311370E+01  2.82539370E+00  6.40121700E-01  1.61277800E-01
Contraction coefficients                   R   N=          20
  8.31735209E-01  1.53080748E+00  2.47714909E+00  3.25628025E+00  2.79289363E+00
  9.54937696E-01 -6.17933698E-01 -2.75721009E-01  8.14207643E-01  2.66956139E-01
  1.11699859E-01  1.11382493E+00  2.14935418E-01  3.64571127E-01  4.15051428E-01
  1.81380684E-01  2.14935418E-01  3.64571127E-01  4.15051428E-01  1.81380684E-01
P(S=P) Contraction coefficients            R   N=          20
  0.00000000E+00  0.00000000E+00  0.00000000E+00  0.00000000E+00  0.00000000E+00
  0.00000000E+00  3.11694559E+00  2.40143725E+00  1.05436051E+00  2.77431937E-01
  6.49398041E-02  0.00000000E+00  0.00000000E+00  0.00000000E+00  0.00000000E+00
  0.00000000E+00  0.00000000E+00  0.00000000E+00  0.00000000E+00  0.00000000E+00
Coordinates of each shell                  R   N=          27
  2.25992393E+00 -1.32709372E+00  1.58791369E+00  2.25992393E+00 -1.32709372E+00
  1.58791369E+00  2.25992393E+00 -1.32709372E+00  1.58791369E+00  2.25992393E+00