                  Welcome to Q-Chem
     A Quantum Leap Into The Future Of Chemistry

 Y. Shao, L. Fusti-Molnar, Y. Jung, J. Kussmann, C. Ochsenfeld,
 S. T. Brown, A. T. B. Gilbert, L. V. Slipchenko,S. V. Levchenko,
 D. P. O'Neill, R. A. DiStasio Jr., R. C. Lochan, T. Wang,
 G. J. O. Beran, N. A. Besley, J. M. Herbert, C. Y. Lin,
 T. Van Voorhis, S. H. Chien, A. Sodt, R. P. Steele, 
 V. A. Rassolov, P. E. Maslen, P. P. Korambath, R. D. Adamson,
 B. Austin, J. Baker, E. F. C. Byrd, H. Dachsel, R. J. Doerksen,
 A. Dreuw, B. D. Dunietz, A. D. Dutoi, T. R. Furlani,
 S. R. Gwaltney, A. Heyden, S. Hirata, C.-P. Hsu, G. Kedziora,
 R. Z. Khaliullin, P. Klunzinger, A. M. Lee, M. S. Lee, W. Liang,
 I. Lotan, N. Nair, B. Peters, E. I. Proynov, P. A. Pieniazek, 
 Y. M. Rhee, J. Ritchie, E. Rosta, C. D. Sherrill, 
 A. C. Simmonett, J. E. Subotnik, H. L. Woodcock III,
 W. Zhang, A. T. Bell, A. K. Chakraborty, D. M. Chipman,
 F. J. Keil, A. Warshel, W. J. Hehre, H. F. Schaefer III,
 J. Kong, A. I. Krylov, P. M. W. Gill, M. Head-Gordon,

 Additional authors for Version 3.1: 
 Z. Gan, Y. Zhao, N. E. Schultz, D. Truhlar, E. Epifanovsky and M. Oana.

 Additional authors for Version 3.2: 
 R. Baer, B. R. Brooks, D. Casanova, J.-D. Chai, C.-L. Cheng, 
 C. Cramer, D. Crittenden, A. Ghysels, G. Hawkins, E. G. Hohenstein, 
 C. Kelley, W. Kurlancheek, D. Liotard, E. Livshits, P. Manohar, 
 A. Marenich, D. Neuhauser, R. Olson, M. A. Rohrdanz, K. S. Thanthiriwatte, 
 A. J. W. Thom, V. Vanovschi, C. F. Williams, Q. Wu and Z.-Q. You. 

 Additional authors for Version 4.0: 
 A. Aspuru-Guzik, C. Chang, R. G. Edgar, E. Sundstrom, J. Parkhill, K. Lawler,
 M. Gordon, M. Schmidt, N. Shenvi, D. Lambrecht, M. Goldey, R. Olivares-Amaya,
 Y. Bernard, L. Vogt, M. Watson, J. Liu, S. Yeganeh, B. Kaduk, O. Vydrov, X. Xu, 
 I. Kaliman, K. Khistyaev, N. Russ, I.Y. Zhang, W.A. Goddard III, F. Liu, R. King ,
 A. Landau, M. Wormit, A. Dreuw, M. Diedenhofen, A. Klamt, A.W. Lange, D. Ghosh,
 D. Kosenkov, T. Kus, A. Landau, D. Zuev, J. Deng, S.P. Mao, Y.C. Su, D. Small,
 L. D. Jacobson
 
 Q-Chem, Version 4.0.1, Q-Chem, Inc., Pittsburgh, PA (2007).


 MAC (Intel) OSX Version 4.1.0.1 

 Q-chem begins on Thu May  1 14:45:15 2014  

chemsrv2.anu.edu.au
Host: 0

     Scratch files written to /scratch/atg/local/qchem34240//
 Jan2214 |usr|local|qchem|17Jun13 -1
 Using version located at /usr/local/qchem/17Jun13/qchem/bin/qchem

Applying user defined connections for MM calculations

theFileMan(): MAXOPENFILES=206 MAX_SUB_FILE_NUM=16
Maximum size of a physical file is 2.0 GB, maximum size of a tmp-file is 32.0 GB

 opened zmat2 in MoleculeInput::write (get connectivity info)

Total Memory Limit in MB = 2000
Mega-Array Size in MB = 62
Finally everything over in PARseQInput

--------------------------------------------------------------
User input:
--------------------------------------------------------------
$molecule
0 1
O -0.790909 1.149780 0.907453 2001 2 3 0 0
H -1.628044 1.245320 1.376372 2002 1 0 0 0
H -0.669346 1.913705 0.331002 2002 1 0 0 0
O 1.178001 -0.686227 0.841306 2001 5 6 0 0
H 0.870001 -1.337091 1.468215 2002 4 0 0 0
H 0.472696 -0.008397 0.851892 2002 4 0 0 0
$end

$rem
BASIS = 6-31+G*
!DMA = 1
EXCHANGE = B3LYP
FORCE_FIELD = amber99
GUI = 2
JOB_TYPE = Optimization
QM_MM_INTERFACE = oniom
SCF_CONVERGENCE = 8
THRESH = 12
USER_CONNECT = true
$end

$qm_atoms
4 5 6
$end
--------------------------------------------------------------
 ----------------------------------------------------
       Standard Nuclear Orientation (Angstroms)
    I     Atom         X            Y            Z
 ----------------------------------------------------
    1      O      -0.790909     1.149780     0.907453
    2      H      -1.628044     1.245320     1.376372
    3      H      -0.669346     1.913705     0.331002
    4      O       1.178001    -0.686227     0.841306
    5      H       0.870001    -1.337091     1.468215
    6      H       0.472696    -0.008397     0.851892
 ----------------------------------------------------
 Nuclear Repulsion Energy =     0.0000000000 hartrees
 There are       10 alpha and       10 beta electrons

Total QAlloc Memory Limit   2000 MB
Mega-Array Size        61 MB
MEM_STATIC part        62 MB

finished with qalloc call
   **** Step 1: MM calculation on the entire system **** 
 AMBER99 force field loaded.
 getting molecule information
 Reading atomic types. 
Determining angles, torsions, etc. from user defined input
Finding angles...
Finding torsions...
Finding improper torsions...
Wrote 4 MM bonds to file 840
 Time req'd to get MM system information: 0.0 s (CPU) 0.0 s (wall)

 ------ MM Energies ------
   Ebond:             0.307735944571
   Eangle:            0.580924646179
   EUreyBrad:         0.000000000000
   Eimptors:          0.000000000000
   Etorsion:          0.000000000000
   Evdw:              2.441274749334
   Ecoulomb:         -9.165642881537
   Etot:             -5.835707541454 Kcal/mol (     -0.009299791973 hartree)
 -------------------------
 Time req'd to calc MM energy: 0.0 s (CPU) 0.0 s (wall)
 Call to compute MM gradient 
 AMBER99 force field loaded.
 getting molecule information
 Reading atomic types. 
Wrote 0 MM bonds to file 840
 Time req'd to get MM system information: 0.0 s (CPU) 0.0 s (wall)
 Time req'd to calc MM gradient: 0.0 s (CPU) 0.0 s (wall)
   **** Step 2: MM calculation on the model system **** 
 In set_model_system 
 set_model_system n_atoms = 6
 1 Reading atomic types. 
 n_atoms_model: 3
 n_qm_bonds = 2
 ----------------------------------------------------
       Standard Nuclear Orientation (Angstroms)
    I     Atom         X            Y            Z
 ----------------------------------------------------
    1      O       1.178001    -0.686227     0.841306
    2      H       0.870001    -1.337091     1.468215
    3      H       0.472696    -0.008397     0.851892
 ----------------------------------------------------
 Nuclear Repulsion Energy =     9.1102933083 hartrees
 There are        5 alpha and        5 beta electrons
 AMBER99 force field loaded.
 getting molecule information
 Reading atomic types. 
Wrote 0 MM bonds to file 848
Finding angles...
Finding torsions...
Finding improper torsions...
 Time req'd to get MM system information: 0.0 s (CPU) 0.0 s (wall)

 ------ MM Energies ------
   Ebond:             0.248986196026
   Eangle:            0.034617059590
   EUreyBrad:         0.000000000000
   Eimptors:          0.000000000000
   Etorsion:          0.000000000000
   Evdw:              0.000000000000
   Ecoulomb:          0.000000000000
   Etot:              0.283603255616 Kcal/mol (      0.000451950558 hartree)
 -------------------------
 Eold:   -0.0092998 mm_energy:    0.0004520 Enew:   -0.0097517
 Time req'd to calc MM energy: 0.0 s (CPU) 0.0 s (wall)
 Call to compute MM gradient 
 AMBER99 force field loaded.
 getting molecule information
 Reading atomic types. 
Wrote 0 MM bonds to file 848
Finding angles...
Finding torsions...
Finding improper torsions...
 Time req'd to get MM system information: 0.0 s (CPU) 0.0 s (wall)
 Time req'd to calc MM gradient: 0.0 s (CPU) 0.0 s (wall)
   **** Step 3: QM calculation on the model system **** 
 Requested basis set is 6-31+G(d)
 There are 9 shells and 23 basis functions
 Job number = 2, Threshold = 1.00E-12
Integral type ranges set in mkLRange.C for JobNum: 2  <1-21|1-21>
Symmetry turned off temporarily
 Using the largest function pair in Schwarz integrals
Total number of integrals generated =            4995
Symmetry turned back on
 A cutoff of  1.0D-12 yielded     45 shell pairs
 There are       309 function pairs
 Job number = 11, Threshold = 1.00E-12
Integral type ranges set in mkLRange.C for JobNum: 11  <1-21|22-22>
Total number of integrals generated =             927
 Smallest overlap matrix eigenvalue = 1.77E-02
 Multipole matrices computed through 2nd order
 Guess from superposition of atomic densities
 Warning:  Energy on first SCF cycle will be non-variational
scfman initvdwdat 
 A restricted hybrid HF-DFT SCF calculation will be
 performed using Pulay DIIS extrapolation
 Exchange:     0.2000 Hartree-Fock + 0.0800 Slater + 0.7200 Becke88
 Correlation:  0.8100 LYP + 0.1900 VWN1RPA
 Using SG-1 standard quadrature grid
 SCF converges when DIIS error is below 1.0E-08
Finding J and K together
 Job number = 22, Threshold = 1.00E-12
Integral type ranges set in mkLRange.C for JobNum: 22  <1-21|1-21>
Approximate symmetry reduction factor = 1.000000
Storing 3796.18% of integrals
Total number of integrals generated =           50238
Target Grid is being used
 CPU 0.00 s  wall 0.00 s
NTotSigB2 = 7836
Total Number of Grid Points = 8654
 CPU 0.12 s  wall 0.25 s

 Total DFTman time = 0.12 CPUs 0.25 Wall
Fock build time:  0.20 s (CPU) 0.98 s (wall)
DIIS Errors:  Max 8.22E-01 RMS 1.36E-01

Current DIIS subspace size = 1
REM_GRID_RESTART_DIIS = 0

 ---------------------------------------
  Cycle       Energy         DIIS Error
 ---------------------------------------
    1     -76.3915192682      1.36E-01  00000
Finding J and K together
 Job number = 22, Threshold = 1.00E-12
Integral type ranges set in mkLRange.C for JobNum: 22  <1-21|1-21>
Approximate symmetry reduction factor = 1.000000
Storing 3796.18% of integrals
Reusing in-core integrals buffer for job 22
Target Grid is being used
 CPU 0.00 s  wall 0.00 s
NTotSigB2 = 7836
Total Number of Grid Points = 8654
 CPU 0.12 s  wall 0.12 s

 Total DFTman time = 0.12 CPUs 0.12 Wall
Fock build time:  0.15 s (CPU) 0.15 s (wall)
DIIS Errors:  Max 2.23E-01 RMS 3.57E-02

Current DIIS subspace size = 2
REM_GRID_RESTART_DIIS = 0

    2     -76.3566145750      3.57E-02  00000
Finding J and K together
 Job number = 22, Threshold = 1.00E-12
Integral type ranges set in mkLRange.C for JobNum: 22  <1-21|1-21>
Approximate symmetry reduction factor = 1.000000
Storing 3796.18% of integrals
Reusing in-core integrals buffer for job 22
Target Grid is being used
 CPU 0.00 s  wall 0.00 s
NTotSigB2 = 7836
Total Number of Grid Points = 8654
 CPU 0.12 s  wall 0.12 s

 Total DFTman time = 0.12 CPUs 0.12 Wall
Fock build time:  0.15 s (CPU) 0.15 s (wall)
DIIS Errors:  Max 3.25E-01 RMS 5.37E-02

Current DIIS subspace size = 3
REM_GRID_RESTART_DIIS = 0

    3     -76.2794816811      5.37E-02  00000
Finding J and K together
 Job number = 22, Threshold = 1.00E-12
Integral type ranges set in mkLRange.C for JobNum: 22  <1-21|1-21>
Approximate symmetry reduction factor = 1.000000
Storing 3796.18% of integrals
Reusing in-core integrals buffer for job 22
Target Grid is being used
 CPU 0.00 s  wall 0.00 s
NTotSigB2 = 7836
Total Number of Grid Points = 8654
 CPU 0.12 s  wall 0.12 s

 Total DFTman time = 0.12 CPUs 0.12 Wall
Fock build time:  0.15 s (CPU) 0.15 s (wall)
DIIS Errors:  Max 5.67E-03 RMS 1.31E-03

Current DIIS subspace size = 4
REM_GRID_RESTART_DIIS = 0

    4     -76.4220903502      1.31E-03  00000
Finding J and K together
 Job number = 22, Threshold = 1.00E-12
Integral type ranges set in mkLRange.C for JobNum: 22  <1-21|1-21>
Approximate symmetry reduction factor = 1.000000
Storing 3796.18% of integrals
Reusing in-core integrals buffer for job 22
Target Grid is being used
 CPU 0.00 s  wall 0.00 s
NTotSigB2 = 7836
Total Number of Grid Points = 8654
 CPU 0.12 s  wall 0.12 s

 Total DFTman time = 0.12 CPUs 0.12 Wall
Fock build time:  0.15 s (CPU) 0.15 s (wall)
DIIS Errors:  Max 9.77E-04 RMS 2.16E-04

Current DIIS subspace size = 5
REM_GRID_RESTART_DIIS = 0

    5     -76.4221832476      2.16E-04  00000
Finding J and K together
 Job number = 22, Threshold = 1.00E-12
Integral type ranges set in mkLRange.C for JobNum: 22  <1-21|1-21>
Approximate symmetry reduction factor = 1.000000
Storing 3796.18% of integrals
Reusing in-core integrals buffer for job 22
Target Grid is being used
 CPU 0.00 s  wall 0.00 s
NTotSigB2 = 7836
Total Number of Grid Points = 8654
 CPU 0.12 s  wall 0.12 s

 Total DFTman time = 0.12 CPUs 0.12 Wall
Fock build time:  0.14 s (CPU) 0.15 s (wall)
DIIS Errors:  Max 2.69E-04 RMS 4.10E-05

Current DIIS subspace size = 6
REM_GRID_RESTART_DIIS = 0

    6     -76.4221853378      4.10E-05  00000
Finding J and K together
 Job number = 22, Threshold = 1.00E-12
Integral type ranges set in mkLRange.C for JobNum: 22  <1-21|1-21>
Approximate symmetry reduction factor = 1.000000
Storing 3796.18% of integrals
Reusing in-core integrals buffer for job 22
Target Grid is being used
 CPU 0.00 s  wall 0.00 s
NTotSigB2 = 7836
Total Number of Grid Points = 8654
 CPU 0.12 s  wall 0.12 s

 Total DFTman time = 0.12 CPUs 0.12 Wall
Fock build time:  0.14 s (CPU) 0.15 s (wall)
DIIS Errors:  Max 5.15E-06 RMS 1.27E-06

Current DIIS subspace size = 7
REM_GRID_RESTART_DIIS = 0

    7     -76.4221854194      1.27E-06  00000
Finding J and K together
 Job number = 22, Threshold = 1.00E-12
Integral type ranges set in mkLRange.C for JobNum: 22  <1-21|1-21>
Approximate symmetry reduction factor = 1.000000
Storing 3796.18% of integrals
Reusing in-core integrals buffer for job 22
Target Grid is being used
 CPU 0.00 s  wall 0.00 s
NTotSigB2 = 7836
Total Number of Grid Points = 8654
 CPU 0.12 s  wall 0.12 s

 Total DFTman time = 0.12 CPUs 0.12 Wall
Fock build time:  0.14 s (CPU) 0.15 s (wall)
DIIS Errors:  Max 1.49E-06 RMS 3.04E-07

Current DIIS subspace size = 8
REM_GRID_RESTART_DIIS = 0

    8     -76.4221854195      3.04E-07  00000
Finding J and K together
 Job number = 22, Threshold = 1.00E-12
Integral type ranges set in mkLRange.C for JobNum: 22  <1-21|1-21>
Approximate symmetry reduction factor = 1.000000
Storing 3796.18% of integrals
Reusing in-core integrals buffer for job 22
Target Grid is being used
 CPU 0.00 s  wall 0.00 s
NTotSigB2 = 7836
Total Number of Grid Points = 8654
 CPU 0.11 s  wall 0.11 s

 Total DFTman time = 0.11 CPUs 0.11 Wall
Fock build time:  0.14 s (CPU) 0.14 s (wall)
DIIS Errors:  Max 1.48E-07 RMS 2.55E-08

Current DIIS subspace size = 9
REM_GRID_RESTART_DIIS = 0

    9     -76.4221854195      2.55E-08  00000
Finding J and K together
 Job number = 22, Threshold = 1.00E-12
Integral type ranges set in mkLRange.C for JobNum: 22  <1-21|1-21>
Approximate symmetry reduction factor = 1.000000
Storing 3796.18% of integrals
Reusing in-core integrals buffer for job 22
Target Grid is being used
 CPU 0.00 s  wall 0.00 s
NTotSigB2 = 7836
Total Number of Grid Points = 8654
 CPU 0.10 s  wall 0.10 s

 Total DFTman time = 0.10 CPUs 0.10 Wall
Fock build time:  0.13 s (CPU) 0.13 s (wall)
DIIS Errors:  Max 8.00E-09 RMS 1.30E-09

Current DIIS subspace size = 10
REM_GRID_RESTART_DIIS = 0

   10     -76.4221854195      1.30E-09  00000 Convergence criterion met
 ---------------------------------------
 SCF time:  CPU 1.50 s  wall 2.36 s
 Eold:   -0.0097517 E_qmmm:  -76.431937161998 
Here are the indices for MO re-ordering:
0 1 2 3 4 5 6 7 8 9 10 11 12 13 15 18 14 16 17 19 20 21 22 Here are the indices for MO re-ordering:
0 1 2 3 4 5 6 7 8 9 10 11 12 13 15 18 14 16 17 19 20 21 22  SCF   energy in the final basis set = -76.4319371620
 Total energy in the final basis set = -76.4319371620
Symmetry turned off temporarily
 Analysis of SCF Wavefunction

 --------------------------------------------------------------
                    Orbital Energies (a.u.)
 --------------------------------------------------------------

 Alpha MOs
 -- Occupied --
-19.169  -1.025  -0.541  -0.399  -0.320
 -- Virtual --
  0.024   0.114   0.155   0.156   0.202   0.244   0.941   1.041
  1.109   1.114   1.150   1.248   1.706   1.722   1.756   2.271
  2.639   3.678
 --------------------------------------------------------------

          Ground-State Mulliken Net Atomic Charges

     Atom                 Charge (a.u.)
  ----------------------------------------
      1 O                    -0.924734
      2 H                     0.465402
      3 H                     0.459332
  ----------------------------------------
  Sum of atomic charges =     0.000000

 -----------------------------------------------------------------
                    Cartesian Multipole Moments
 -----------------------------------------------------------------
    Charge (ESU x 10^10)
                 0.0000
    Dipole Moment (Debye)
         X      -1.9267      Y       0.0339      Z       1.2236
       Tot       2.2826
    Quadrupole Moments (Debye-Ang)
        XX     -10.8028     XY       0.5461     YY      -5.3113
        XZ      -0.7239     YZ      -2.0382     ZZ      -4.7176
    Octapole Moments (Debye-Ang^2)
       XXX     -29.7328    XXY       6.0450    XYY      -6.5392
       YYY      10.8851    XXZ      -8.7855    XYZ      -1.3689
       YYZ      -1.9200    XZZ      -7.6838    YZZ       0.6801
       ZZZ     -14.7262
    Hexadecapole Moments (Debye-Ang^3)
      XXXX     -70.4796   XXXY      18.4181   XXYY     -13.8008
      XYYY      13.0475   YYYY     -22.0044   XXXZ     -25.6450
      XXYZ       3.6382   XYYZ      -3.2295   YYYZ       6.0289
      XXZZ     -18.8176   XYZZ       2.2580   YYZZ      -4.2507
      XZZZ     -19.3499   YZZZ       5.8437   ZZZZ     -34.2996
 -----------------------------------------------------------------
 Calculating analytic gradient of the SCF energy
 Job number = 111, Threshold = 1.00E-12
Integral type ranges set in mkLRange.C for JobNum: 11  <1-21|22-22>
Total number of integrals generated =             927
Finding J and K together
 ML is being used
 Job number = 122, Threshold = 1.00E-12
Integral type ranges set in mkLRange.C for JobNum: 22  <1-21|1-21>
Total number of integrals generated =           50238
 Gradient of Coulomb and Exchange Energy
            1           2           3
    1  -2.5111957   0.7579701   1.7532256
    2   0.0016909   1.7599851  -1.7616760
    3   1.6226515  -1.6467731   0.0241216
 CPU 0.00 s  wall 0.00 s
NTotSigB2 = 7836
Total Number of Grid Points = 8654
 CPU 0.29 s  wall 0.30 s

 Total DFTman time = 0.29 CPUs 0.30 Wall
 Gradient of SCF Energy
            1           2           3
    1   0.0053699   0.0022330  -0.0076029
    2  -0.0164584   0.0126178   0.0038406
    3   0.0073611  -0.0097184   0.0023573
 Max gradient component =       1.646E-02
 RMS gradient           =       8.760E-03
 Gradient time:  CPU 0.64 s  wall 1.99 s
 ------------------------------------------------------------------------------
                     drvman        : Timing summary (seconds)
 ------------------------------------------------------------------------------
     job step          cpu (% of tot)      sys (% of tot)     wall (% of tot)
 ------------------------------------------------------------------------------
 ------------------------------------------------------------------------------
   Grand Totals     0.6361E+00          0.1200E-04          0.1992E+01
 ------------------------------------------------------------------------------
 ----------------------------------------------------
       Standard Nuclear Orientation (Angstroms)
    I     Atom         X            Y            Z
 ----------------------------------------------------
    1      O      -0.790909     1.149780     0.907453
    2      H      -1.628044     1.245320     1.376372
    3      H      -0.669346     1.913705     0.331002
    4      O       1.178001    -0.686227     0.841306
    5      H       0.870001    -1.337091     1.468215
    6      H       0.472696    -0.008397     0.851892
 ----------------------------------------------------
 Nuclear Repulsion Energy =     0.0000000000 hartrees
 There are        5 alpha and        5 beta electrons
 Geometry Optimization Parameters
   NAtoms,    NIC,     NZ,  NCons,   NDum,   NFix, NCnnct, MaxDiis
        6      25       0       0       0       0       0       0


** GEOMETRY OPTIMIZATION IN DELOCALIZED INTERNAL COORDINATES **
   Searching for a Minimum

   Optimization Cycle:   1

                       Coordinates (Angstroms)
     ATOM              X           Y           Z
      1  O        -0.790909    1.149780    0.907453
      2  H        -1.628044    1.245320    1.376372
      3  H        -0.669346    1.913705    0.331002
      4  O         1.178001   -0.686227    0.841306
      5  H         0.870001   -1.337091    1.468215
      6  H         0.472696   -0.008397    0.851892
   Point Group: c1    Number of degrees of freedom:    12


   Energy is    -76.431937162


 Attempting to Generate Delocalized Internal Coordinates
 GETINT wrote B to file, NVib is           12
 calling HSSCONV
 HCONV 3*NATOMS:           18
 wrote HINT to file
  writing hessian 

 12 Hessian modes will be used to form the next step
  Hessian Eigenvalues:
     0.002066    0.002204    0.071925    0.160000    0.160000    0.160000
     0.200000    0.200000    0.517214    0.544737    0.545660    0.566233

 Minimum Search - Taking Simple RFO Step
 Searching for Lamda that Minimizes Along All modes
 Value Taken    Lamda =  -0.00351791
 Step Taken.  Stepsize is  0.138967

                             Maximum     Tolerance    Cnvgd?
         Gradient           0.016592      0.000300      NO
         Displacement       0.084434      0.001200      NO
         Energy change     *********      0.000001      NO


 New Cartesian Coordinates Obtained by Inverse Iteration

 Displacement from previous Coordinates is:  0.159531
 ----------------------------------------------------
       Standard Nuclear Orientation (Angstroms)
    I     Atom         X            Y            Z
 ----------------------------------------------------
    1      O      -0.789428     1.148482     0.911347
    2      H      -1.632390     1.289331     1.349268
    3      H      -0.713664     1.924694     0.349430
    4      O       1.195900    -0.702268     0.840288
    5      H       0.888963    -1.366168     1.473558
    6      H       0.483019    -0.016981     0.852349
 ----------------------------------------------------
 Nuclear Repulsion Energy =     0.0000000000 hartrees
 There are        5 alpha and        5 beta electrons
 opened zmat2 in MoleculeInput::write (get connectivity info)
   **** Step 1: MM calculation on the entire system **** 
 AMBER99 force field loaded.
 getting molecule information
 Reading atomic types. 
Wrote 0 MM bonds to file 840
 Time req'd to get MM system information: 0.0 s (CPU) 0.0 s (wall)

 ------ MM Energies ------
   Ebond:             0.629191848994
   Eangle:            0.132981106168
   EUreyBrad:         0.000000000000
   Eimptors:          0.000000000000
   Etorsion:          0.000000000000
   Evdw:              2.141123149351
   Ecoulomb:         -9.227551329720
   Etot:             -6.324255225207 Kcal/mol (     -0.010078342268 hartree)
 -------------------------
 Time req'd to calc MM energy: 0.0 s (CPU) 0.0 s (wall)
 Call to compute MM gradient 
 AMBER99 force field loaded.
 getting molecule information
 Reading atomic types. 
Wrote 0 MM bonds to file 840
 Time req'd to get MM system information: 0.0 s (CPU) 0.0 s (wall)
 Time req'd to calc MM gradient: 0.0 s (CPU) 0.0 s (wall)
   **** Step 2: MM calculation on the model system **** 
 In set_model_system 
 set_model_system n_atoms = 6
 1 Reading atomic types. 
 n_atoms_model: 3
 n_qm_bonds = 2
 ----------------------------------------------------
       Standard Nuclear Orientation (Angstroms)
    I     Atom         X            Y            Z
 ----------------------------------------------------
    1      O       1.195900    -0.702268     0.840288
    2      H       0.888963    -1.366168     1.473558
    3      H       0.483019    -0.016981     0.852349
 ----------------------------------------------------
 Nuclear Repulsion Energy =     9.0002589320 hartrees
 There are        5 alpha and        5 beta electrons
 AMBER99 force field loaded.
 getting molecule information
 Reading atomic types. 
Wrote 0 MM bonds to file 848
Finding angles...
Finding torsions...
Finding improper torsions...
 Time req'd to get MM system information: 0.0 s (CPU) 0.0 s (wall)

 ------ MM Energies ------
   Ebond:             0.614781752894
   Eangle:            0.015001024652
   EUreyBrad:         0.000000000000
   Eimptors:          0.000000000000
   Etorsion:          0.000000000000
   Evdw:              0.000000000000
   Ecoulomb:          0.000000000000
   Etot:              0.629782777545 Kcal/mol (      0.001003622745 hartree)
 -------------------------
 Eold:   -0.0100783 mm_energy:    0.0010036 Enew:   -0.0110820
 Time req'd to calc MM energy: 0.0 s (CPU) 0.0 s (wall)
 Call to compute MM gradient 
 AMBER99 force field loaded.
 getting molecule information
 Reading atomic types. 
Wrote 0 MM bonds to file 848
Finding angles...
Finding torsions...
Finding improper torsions...
 Time req'd to get MM system information: 0.0 s (CPU) 0.0 s (wall)
 Time req'd to calc MM gradient: 0.0 s (CPU) 0.0 s (wall)
   **** Step 3: QM calculation on the model system **** 
 Requested basis set is 6-31+G(d)
 There are 9 shells and 23 basis functions
 Job number = 2, Threshold = 1.00E-12
Integral type ranges set in mkLRange.C for JobNum: 2  <1-21|1-21>
Symmetry turned off temporarily
Total number of integrals generated =            4995
Symmetry turned back on
 A cutoff of  1.0D-12 yielded     45 shell pairs
 There are       309 function pairs
 Job number = 11, Threshold = 1.00E-12
Integral type ranges set in mkLRange.C for JobNum: 11  <1-21|22-22>
Total number of integrals generated =             927
 Smallest overlap matrix eigenvalue = 1.84E-02
 Multipole matrices computed through 2nd order
 Guess from superposition of atomic densities
 Warning:  Energy on first SCF cycle will be non-variational
 A restricted hybrid HF-DFT SCF calculation will be
 performed using Pulay DIIS extrapolation
 Exchange:     0.2000 Hartree-Fock + 0.0800 Slater + 0.7200 Becke88
 Correlation:  0.8100 LYP + 0.1900 VWN1RPA
 Using SG-1 standard quadrature grid
 SCF converges when DIIS error is below 1.0E-08
Finding J and K together
 Job number = 22, Threshold = 1.00E-12
Integral type ranges set in mkLRange.C for JobNum: 22  <1-21|1-21>
Storing 3796.18% of integrals
Total number of integrals generated =           51165
Target Grid is being used
 CPU 0.00 s  wall 0.00 s
NTotSigB2 = 7836
Total Number of Grid Points = 8654
 CPU 0.11 s  wall 0.12 s

 Total DFTman time = 0.11 CPUs 0.12 Wall
Fock build time:  0.15 s (CPU) 0.16 s (wall)
DIIS Errors:  Max 8.03E-01 RMS 1.33E-01

Current DIIS subspace size = 1
REM_GRID_RESTART_DIIS = 0

 ---------------------------------------
  Cycle       Energy         DIIS Error
 ---------------------------------------
    1     -76.3782784876      1.33E-01  00000
Finding J and K together
 Job number = 22, Threshold = 1.00E-12
Integral type ranges set in mkLRange.C for JobNum: 22  <1-21|1-21>
Storing 3796.18% of integrals
Reusing in-core integrals buffer for job 22
Target Grid is being used
 CPU 0.00 s  wall 0.00 s
NTotSigB2 = 7836
Total Number of Grid Points = 8654
 CPU 0.12 s  wall 0.12 s

 Total DFTman time = 0.12 CPUs 0.12 Wall
Fock build time:  0.15 s (CPU) 0.15 s (wall)
DIIS Errors:  Max 2.20E-01 RMS 3.54E-02

Current DIIS subspace size = 2
REM_GRID_RESTART_DIIS = 0

    2     -76.3572276287      3.54E-02  00000
Finding J and K together
 Job number = 22, Threshold = 1.00E-12
Integral type ranges set in mkLRange.C for JobNum: 22  <1-21|1-21>
Storing 3796.18% of integrals
Reusing in-core integrals buffer for job 22
Target Grid is being used
 CPU 0.00 s  wall 0.00 s
NTotSigB2 = 7836
Total Number of Grid Points = 8654
 CPU 0.12 s  wall 0.12 s

 Total DFTman time = 0.12 CPUs 0.12 Wall
Fock build time:  0.15 s (CPU) 0.15 s (wall)
DIIS Errors:  Max 3.25E-01 RMS 5.38E-02

Current DIIS subspace size = 3
REM_GRID_RESTART_DIIS = 0

    3     -76.2783026008      5.38E-02  00000
Finding J and K together
 Job number = 22, Threshold = 1.00E-12
Integral type ranges set in mkLRange.C for JobNum: 22  <1-21|1-21>
Storing 3796.18% of integrals
Reusing in-core integrals buffer for job 22
Target Grid is being used
 CPU 0.00 s  wall 0.00 s
NTotSigB2 = 7836
Total Number of Grid Points = 8654
 CPU 0.12 s  wall 0.12 s

 Total DFTman time = 0.12 CPUs 0.12 Wall
Fock build time:  0.15 s (CPU) 0.15 s (wall)
DIIS Errors:  Max 5.81E-03 RMS 1.33E-03

Current DIIS subspace size = 4
REM_GRID_RESTART_DIIS = 0

    4     -76.4220750151      1.33E-03  00000
Finding J and K together
 Job number = 22, Threshold = 1.00E-12
Integral type ranges set in mkLRange.C for JobNum: 22  <1-21|1-21>
Storing 3796.18% of integrals
Reusing in-core integrals buffer for job 22
Target Grid is being used
 CPU 0.00 s  wall 0.00 s
NTotSigB2 = 7836
Total Number of Grid Points = 8654
 CPU 0.12 s  wall 0.12 s

 Total DFTman time = 0.12 CPUs 0.12 Wall
Fock build time:  0.15 s (CPU) 0.15 s (wall)
DIIS Errors:  Max 1.01E-03 RMS 2.19E-04

Current DIIS subspace size = 5
REM_GRID_RESTART_DIIS = 0

    5     -76.4221708700      2.19E-04  00000
Finding J and K together
 Job number = 22, Threshold = 1.00E-12
Integral type ranges set in mkLRange.C for JobNum: 22  <1-21|1-21>
Storing 3796.18% of integrals
Reusing in-core integrals buffer for job 22
Target Grid is being used
 CPU 0.00 s  wall 0.00 s
NTotSigB2 = 7836
Total Number of Grid Points = 8654
 CPU 0.12 s  wall 0.12 s

 Total DFTman time = 0.12 CPUs 0.12 Wall
Fock build time:  0.14 s (CPU) 0.15 s (wall)
DIIS Errors:  Max 2.72E-04 RMS 4.14E-05

Current DIIS subspace size = 6
REM_GRID_RESTART_DIIS = 0

    6     -76.4221730267      4.14E-05  00000
Finding J and K together
 Job number = 22, Threshold = 1.00E-12
Integral type ranges set in mkLRange.C for JobNum: 22  <1-21|1-21>
Storing 3796.18% of integrals
Reusing in-core integrals buffer for job 22
Target Grid is being used
 CPU 0.00 s  wall 0.00 s
NTotSigB2 = 7836
Total Number of Grid Points = 8654
 CPU 0.12 s  wall 0.12 s

 Total DFTman time = 0.12 CPUs 0.12 Wall
Fock build time:  0.14 s (CPU) 0.15 s (wall)
DIIS Errors:  Max 4.66E-06 RMS 1.19E-06

Current DIIS subspace size = 7
REM_GRID_RESTART_DIIS = 0

    7     -76.4221731107      1.19E-06  00000
Finding J and K together
 Job number = 22, Threshold = 1.00E-12
Integral type ranges set in mkLRange.C for JobNum: 22  <1-21|1-21>
Storing 3796.18% of integrals
Reusing in-core integrals buffer for job 22
Target Grid is being used
 CPU 0.00 s  wall 0.00 s
NTotSigB2 = 7836
Total Number of Grid Points = 8654
 CPU 0.12 s  wall 0.12 s

 Total DFTman time = 0.12 CPUs 0.12 Wall
Fock build time:  0.14 s (CPU) 0.15 s (wall)
DIIS Errors:  Max 1.47E-06 RMS 3.02E-07

Current DIIS subspace size = 8
REM_GRID_RESTART_DIIS = 0

    8     -76.4221731108      3.02E-07  00000
Finding J and K together
 Job number = 22, Threshold = 1.00E-12
Integral type ranges set in mkLRange.C for JobNum: 22  <1-21|1-21>
Storing 3796.18% of integrals
Reusing in-core integrals buffer for job 22
Target Grid is being used
 CPU 0.00 s  wall 0.00 s
NTotSigB2 = 7836
Total Number of Grid Points = 8654
 CPU 0.11 s  wall 0.11 s

 Total DFTman time = 0.11 CPUs 0.11 Wall
Fock build time:  0.14 s (CPU) 0.14 s (wall)
DIIS Errors:  Max 1.65E-07 RMS 2.85E-08

Current DIIS subspace size = 9
REM_GRID_RESTART_DIIS = 0

    9     -76.4221731108      2.85E-08  00000
Finding J and K together
 Job number = 22, Threshold = 1.00E-12
Integral type ranges set in mkLRange.C for JobNum: 22  <1-21|1-21>
Storing 3796.18% of integrals
Reusing in-core integrals buffer for job 22
Target Grid is being used
 CPU 0.00 s  wall 0.00 s
NTotSigB2 = 7836
Total Number of Grid Points = 8654
 CPU 0.10 s  wall 0.10 s

 Total DFTman time = 0.10 CPUs 0.10 Wall
Fock build time:  0.13 s (CPU) 0.13 s (wall)
DIIS Errors:  Max 8.52E-09 RMS 1.41E-09

Current DIIS subspace size = 10
REM_GRID_RESTART_DIIS = 0

   10     -76.4221731108      1.41E-09  00000 Convergence criterion met
 ---------------------------------------
 SCF time:  CPU 1.44 s  wall 1.48 s
 Eold:   -0.0110820 E_qmmm:  -76.433255075835 
Here are the indices for MO re-ordering:
0 1 2 3 4 5 6 7 8 9 10 11 12 13 15 18 14 16 17 19 20 21 22 Here are the indices for MO re-ordering:
0 1 2 3 4 5 6 7 8 9 10 11 12 13 15 18 14 16 17 19 20 21 22  SCF   energy in the final basis set = -76.4332550758
 Total energy in the final basis set = -76.4332550758
Symmetry turned off temporarily
 Analysis of SCF Wavefunction

 --------------------------------------------------------------
                    Orbital Energies (a.u.)
 --------------------------------------------------------------

 Alpha MOs
 -- Occupied --
-19.171  -1.020  -0.537  -0.397  -0.319
 -- Virtual --
  0.023   0.112   0.155   0.156   0.199   0.240   0.933   1.026
  1.114   1.114   1.150   1.249   1.710   1.724   1.758   2.258
  2.617   3.671
 --------------------------------------------------------------

          Ground-State Mulliken Net Atomic Charges

     Atom                 Charge (a.u.)
  ----------------------------------------
      1 O                    -0.919966
      2 H                     0.462827
      3 H                     0.457139
  ----------------------------------------
  Sum of atomic charges =     0.000000

 -----------------------------------------------------------------
                    Cartesian Multipole Moments
 -----------------------------------------------------------------
    Charge (ESU x 10^10)
                 0.0000
    Dipole Moment (Debye)
         X      -1.9241      Y       0.0244      Z       1.2280
       Tot       2.2827
    Quadrupole Moments (Debye-Ang)
        XX     -10.8791     XY       0.5489     YY      -5.2726
        XZ      -0.6938     YZ      -2.0890     ZZ      -4.7300
    Octapole Moments (Debye-Ang^2)
       XXX     -30.3238    XXY       6.2171    XYY      -6.5969
       YYY      11.0670    XXZ      -8.8143    XYZ      -1.4403
       YYZ      -1.7686    XZZ      -7.7663    YZZ       0.7082
       ZZZ     -14.7687
    Hexadecapole Moments (Debye-Ang^3)
      XXXX     -72.6763   XXXY      19.2257   XXYY     -14.2141
      XYYY      13.4809   YYYY     -22.6939   XXXZ     -26.1230
      XXYZ       3.7020   XYYZ      -3.1236   YYYZ       5.9758
      XXZZ     -19.1225   XYZZ       2.3350   YYZZ      -4.1622
      XZZZ     -19.6201   YZZZ       6.0277   ZZZZ     -34.4602
 -----------------------------------------------------------------
 Calculating analytic gradient of the SCF energy
 Job number = 111, Threshold = 1.00E-12
Integral type ranges set in mkLRange.C for JobNum: 11  <1-21|22-22>
Total number of integrals generated =             927
Finding J and K together
 ML is being used
 Job number = 122, Threshold = 1.00E-12
Integral type ranges set in mkLRange.C for JobNum: 22  <1-21|1-21>
Total number of integrals generated =           50238
 Gradient of Coulomb and Exchange Energy
            1           2           3
    1  -2.4585976   0.7282636   1.7303340
    2  -0.0075163   1.7550327  -1.7475164
    3   1.5944786  -1.6203092   0.0258305
 CPU 0.00 s  wall 0.00 s
NTotSigB2 = 7836
Total Number of Grid Points = 8654
 CPU 0.29 s  wall 0.29 s

 Total DFTman time = 0.29 CPUs 0.29 Wall
 Gradient of SCF Energy
            1           2           3
    1   0.0147084  -0.0009691  -0.0137393
    2  -0.0138979   0.0028226   0.0110753
    3  -0.0003962  -0.0011991   0.0015953
 Max gradient component =       1.471E-02
 RMS gradient           =       9.031E-03
 Gradient time:  CPU 0.48 s  wall 0.48 s
 ------------------------------------------------------------------------------
                     drvman        : Timing summary (seconds)
 ------------------------------------------------------------------------------
     job step          cpu (% of tot)      sys (% of tot)     wall (% of tot)
 ------------------------------------------------------------------------------
 ------------------------------------------------------------------------------
   Grand Totals     0.4756E+00          0.3000E-05          0.4760E+00
 ------------------------------------------------------------------------------
 ----------------------------------------------------
       Standard Nuclear Orientation (Angstroms)
    I     Atom         X            Y            Z
 ----------------------------------------------------
    1      O      -0.789428     1.148482     0.911347
    2      H      -1.632390     1.289331     1.349268
    3      H      -0.713664     1.924694     0.349430
    4      O       1.195900    -0.702268     0.840288
    5      H       0.888963    -1.366168     1.473558
    6      H       0.483019    -0.016981     0.852349
 ----------------------------------------------------
 Nuclear Repulsion Energy =     0.0000000000 hartrees
 There are        5 alpha and        5 beta electrons
 Geometry Optimization Parameters
   NAtoms,    NIC,     NZ,  NCons,   NDum,   NFix, NCnnct, MaxDiis
        6      25       0       0       0       0       0       0

 Cartesian Hessian Update
 Hessian Updated using BFGS Update


** GEOMETRY OPTIMIZATION IN DELOCALIZED INTERNAL COORDINATES **
   Searching for a Minimum

   Optimization Cycle:   2

                       Coordinates (Angstroms)
     ATOM              X           Y           Z
      1  O        -0.789428    1.148482    0.911347
      2  H        -1.632390    1.289331    1.349268
      3  H        -0.713664    1.924694    0.349430
      4  O         1.195900   -0.702268    0.840288
      5  H         0.888963   -1.366168    1.473558
      6  H         0.483019   -0.016981    0.852349
   Point Group: c1    Number of degrees of freedom:    12


   Energy is    -76.433255076

 GETINT wrote B to file, NVib is           12
 Hessian Updated using BFGS Update

 11 Hessian modes will be used to form the next step
  Hessian Eigenvalues:
     0.002066    0.002205    0.071543    0.158370    0.199777    0.200000
     0.215452    0.509630    0.540682    0.545194    0.556715

 Minimum Search - Taking Simple RFO Step
 Searching for Lamda that Minimizes Along All modes
 Value Taken    Lamda =  -0.00022734
 Step Taken.  Stepsize is  0.039650

                             Maximum     Tolerance    Cnvgd?
         Gradient           0.004252      0.000300      NO
         Displacement       0.020265      0.001200      NO
         Energy change     -0.001318      0.000001      NO


 New Cartesian Coordinates Obtained by Inverse Iteration

 Displacement from previous Coordinates is:  0.035278
 ----------------------------------------------------
       Standard Nuclear Orientation (Angstroms)
    I     Atom         X            Y            Z
 ----------------------------------------------------
    1      O      -0.795740     1.147029     0.906956
    2      H      -1.632952     1.283542     1.356241
    3      H      -0.702070     1.923599     0.348959
    4      O       1.196096    -0.700362     0.838941
    5      H       0.885298    -1.360079     1.475522
    6      H       0.481766    -0.016640     0.849621
 ----------------------------------------------------
 Nuclear Repulsion Energy =     0.0000000000 hartrees
 There are        5 alpha and        5 beta electrons
 opened zmat2 in MoleculeInput::write (get connectivity info)
   **** Step 1: MM calculation on the entire system **** 
 AMBER99 force field loaded.
 getting molecule information
 Reading atomic types. 
Wrote 0 MM bonds to file 840
 Time req'd to get MM system information: 0.0 s (CPU) 0.0 s (wall)

 ------ MM Energies ------
   Ebond:             0.630565052118
   Eangle:            0.044766805665
   EUreyBrad:         0.000000000000
   Eimptors:          0.000000000000
   Etorsion:          0.000000000000
   Evdw:              2.110745083283
   Ecoulomb:         -9.175239268044
   Etot:             -6.389162326978 Kcal/mol (     -0.010181778319 hartree)
 -------------------------
 Time req'd to calc MM energy: 0.0 s (CPU) 0.0 s (wall)
 Call to compute MM gradient 
 AMBER99 force field loaded.
 getting molecule information
 Reading atomic types. 
Wrote 0 MM bonds to file 840
 Time req'd to get MM system information: 0.0 s (CPU) 0.0 s (wall)
 Time req'd to calc MM gradient: 0.0 s (CPU) 0.0 s (wall)
   **** Step 2: MM calculation on the model system **** 
 In set_model_system 
 set_model_system n_atoms = 6
 1 Reading atomic types. 
 n_atoms_model: 3
 n_qm_bonds = 2
 ----------------------------------------------------
       Standard Nuclear Orientation (Angstroms)
    I     Atom         X            Y            Z
 ----------------------------------------------------
    1      O       1.196096    -0.700362     0.838941
    2      H       0.885298    -1.360079     1.475522
    3      H       0.481766    -0.016640     0.849621
 ----------------------------------------------------
 Nuclear Repulsion Energy =     8.9988771327 hartrees
 There are        5 alpha and        5 beta electrons
 AMBER99 force field loaded.
 getting molecule information
 Reading atomic types. 
Wrote 0 MM bonds to file 848
Finding angles...
Finding torsions...
Finding improper torsions...
 Time req'd to get MM system information: 0.0 s (CPU) 0.0 s (wall)

 ------ MM Energies ------
   Ebond:             0.619225991409
   Eangle:            0.036495466199
   EUreyBrad:         0.000000000000
   Eimptors:          0.000000000000
   Etorsion:          0.000000000000
   Evdw:              0.000000000000
   Ecoulomb:          0.000000000000
   Etot:              0.655721457608 Kcal/mol (      0.001044958663 hartree)
 -------------------------
 Eold:   -0.0101818 mm_energy:    0.0010450 Enew:   -0.0112267
 Time req'd to calc MM energy: 0.0 s (CPU) 0.0 s (wall)
 Call to compute MM gradient 
 AMBER99 force field loaded.
 getting molecule information
 Reading atomic types. 
Wrote 0 MM bonds to file 848
Finding angles...
Finding torsions...
Finding improper torsions...
 Time req'd to get MM system information: 0.0 s (CPU) 0.0 s (wall)
 Time req'd to calc MM gradient: 0.0 s (CPU) 0.0 s (wall)
   **** Step 3: QM calculation on the model system **** 
 Requested basis set is 6-31+G(d)
 There are 9 shells and 23 basis functions
 Job number = 2, Threshold = 1.00E-12
Integral type ranges set in mkLRange.C for JobNum: 2  <1-21|1-21>
Symmetry turned off temporarily
Total number of integrals generated =            4995
Symmetry turned back on
 A cutoff of  1.0D-12 yielded     45 shell pairs
 There are       309 function pairs
 Job number = 11, Threshold = 1.00E-12
Integral type ranges set in mkLRange.C for JobNum: 11  <1-21|22-22>
Total number of integrals generated =             927
 Smallest overlap matrix eigenvalue = 1.83E-02
 Multipole matrices computed through 2nd order
 Guess from superposition of atomic densities
 Warning:  Energy on first SCF cycle will be non-variational
 A restricted hybrid HF-DFT SCF calculation will be
 performed using Pulay DIIS extrapolation
 Exchange:     0.2000 Hartree-Fock + 0.0800 Slater + 0.7200 Becke88
 Correlation:  0.8100 LYP + 0.1900 VWN1RPA
 Using SG-1 standard quadrature grid
 SCF converges when DIIS error is below 1.0E-08
Finding J and K together
 Job number = 22, Threshold = 1.00E-12
Integral type ranges set in mkLRange.C for JobNum: 22  <1-21|1-21>
Storing 3796.18% of integrals
Total number of integrals generated =           51165
Target Grid is being used
 CPU 0.00 s  wall 0.00 s
NTotSigB2 = 7836
Total Number of Grid Points = 8654
 CPU 0.11 s  wall 0.11 s

 Total DFTman time = 0.11 CPUs 0.11 Wall
Fock build time:  0.14 s (CPU) 0.15 s (wall)
DIIS Errors:  Max 8.03E-01 RMS 1.33E-01

Current DIIS subspace size = 1
REM_GRID_RESTART_DIIS = 0

 ---------------------------------------
  Cycle       Energy         DIIS Error
 ---------------------------------------
    1     -76.3782076991      1.33E-01  00000
Finding J and K together
 Job number = 22, Threshold = 1.00E-12
Integral type ranges set in mkLRange.C for JobNum: 22  <1-21|1-21>
Storing 3796.18% of integrals
Reusing in-core integrals buffer for job 22
Target Grid is being used
 CPU 0.00 s  wall 0.00 s
NTotSigB2 = 7836
Total Number of Grid Points = 8654
 CPU 0.12 s  wall 0.12 s

 Total DFTman time = 0.12 CPUs 0.12 Wall
Fock build time:  0.15 s (CPU) 0.15 s (wall)
DIIS Errors:  Max 2.20E-01 RMS 3.54E-02

Current DIIS subspace size = 2
REM_GRID_RESTART_DIIS = 0

    2     -76.3572146472      3.54E-02  00000
Finding J and K together
 Job number = 22, Threshold = 1.00E-12
Integral type ranges set in mkLRange.C for JobNum: 22  <1-21|1-21>
Storing 3796.18% of integrals
Reusing in-core integrals buffer for job 22
Target Grid is being used
 CPU 0.00 s  wall 0.00 s
NTotSigB2 = 7836
Total Number of Grid Points = 8654
 CPU 0.12 s  wall 0.12 s

 Total DFTman time = 0.12 CPUs 0.12 Wall
Fock build time:  0.15 s (CPU) 0.15 s (wall)
DIIS Errors:  Max 3.25E-01 RMS 5.38E-02

Current DIIS subspace size = 3
REM_GRID_RESTART_DIIS = 0

    3     -76.2781618779      5.38E-02  00000
Finding J and K together
 Job number = 22, Threshold = 1.00E-12
Integral type ranges set in mkLRange.C for JobNum: 22  <1-21|1-21>
Storing 3796.18% of integrals
Reusing in-core integrals buffer for job 22
Target Grid is being used
 CPU 0.00 s  wall 0.00 s
NTotSigB2 = 7836
Total Number of Grid Points = 8654
 CPU 0.12 s  wall 0.12 s

 Total DFTman time = 0.12 CPUs 0.12 Wall
Fock build time:  0.15 s (CPU) 0.15 s (wall)
DIIS Errors:  Max 5.81E-03 RMS 1.34E-03

Current DIIS subspace size = 4
REM_GRID_RESTART_DIIS = 0

    4     -76.4220481610      1.34E-03  00000
Finding J and K together
 Job number = 22, Threshold = 1.00E-12
Integral type ranges set in mkLRange.C for JobNum: 22  <1-21|1-21>
Storing 3796.18% of integrals
Reusing in-core integrals buffer for job 22
Target Grid is being used
 CPU 0.00 s  wall 0.00 s
NTotSigB2 = 7836
Total Number of Grid Points = 8654
 CPU 0.12 s  wall 0.12 s

 Total DFTman time = 0.12 CPUs 0.12 Wall
Fock build time:  0.15 s (CPU) 0.15 s (wall)
DIIS Errors:  Max 1.02E-03 RMS 2.19E-04

Current DIIS subspace size = 5
REM_GRID_RESTART_DIIS = 0

    5     -76.4221441952      2.19E-04  00000
Finding J and K together
 Job number = 22, Threshold = 1.00E-12
Integral type ranges set in mkLRange.C for JobNum: 22  <1-21|1-21>
Storing 3796.18% of integrals
Reusing in-core integrals buffer for job 22
Target Grid is being used
 CPU 0.00 s  wall 0.00 s
NTotSigB2 = 7836
Total Number of Grid Points = 8654
 CPU 0.12 s  wall 0.12 s

 Total DFTman time = 0.12 CPUs 0.12 Wall
Fock build time:  0.14 s (CPU) 0.15 s (wall)
DIIS Errors:  Max 2.71E-04 RMS 4.14E-05

Current DIIS subspace size = 6
REM_GRID_RESTART_DIIS = 0

    6     -76.4221463582      4.14E-05  00000
Finding J and K together
 Job number = 22, Threshold = 1.00E-12
Integral type ranges set in mkLRange.C for JobNum: 22  <1-21|1-21>
Storing 3796.18% of integrals
Reusing in-core integrals buffer for job 22
Target Grid is being used
 CPU 0.00 s  wall 0.00 s
NTotSigB2 = 7836
Total Number of Grid Points = 8654
 CPU 0.12 s  wall 0.12 s

 Total DFTman time = 0.12 CPUs 0.12 Wall
Fock build time:  0.14 s (CPU) 0.15 s (wall)
DIIS Errors:  Max 4.55E-06 RMS 1.17E-06

Current DIIS subspace size = 7
REM_GRID_RESTART_DIIS = 0

    7     -76.4221464424      1.17E-06  00000
Finding J and K together
 Job number = 22, Threshold = 1.00E-12
Integral type ranges set in mkLRange.C for JobNum: 22  <1-21|1-21>
Storing 3796.18% of integrals
Reusing in-core integrals buffer for job 22
Target Grid is being used
 CPU 0.00 s  wall 0.00 s
NTotSigB2 = 7836
Total Number of Grid Points = 8654
 CPU 0.12 s  wall 0.12 s

 Total DFTman time = 0.12 CPUs 0.12 Wall
Fock build time:  0.14 s (CPU) 0.15 s (wall)
DIIS Errors:  Max 1.44E-06 RMS 2.98E-07

Current DIIS subspace size = 8
REM_GRID_RESTART_DIIS = 0

    8     -76.4221464425      2.98E-07  00000
Finding J and K together
 Job number = 22, Threshold = 1.00E-12
Integral type ranges set in mkLRange.C for JobNum: 22  <1-21|1-21>
Storing 3796.18% of integrals
Reusing in-core integrals buffer for job 22
Target Grid is being used
 CPU 0.00 s  wall 0.00 s
NTotSigB2 = 7836
Total Number of Grid Points = 8654
 CPU 0.11 s  wall 0.11 s

 Total DFTman time = 0.11 CPUs 0.11 Wall
Fock build time:  0.14 s (CPU) 0.14 s (wall)
DIIS Errors:  Max 1.66E-07 RMS 2.86E-08

Current DIIS subspace size = 9
REM_GRID_RESTART_DIIS = 0

    9     -76.4221464425      2.86E-08  00000
Finding J and K together
 Job number = 22, Threshold = 1.00E-12
Integral type ranges set in mkLRange.C for JobNum: 22  <1-21|1-21>
Storing 3796.18% of integrals
Reusing in-core integrals buffer for job 22
Target Grid is being used
 CPU 0.00 s  wall 0.00 s
NTotSigB2 = 7836
Total Number of Grid Points = 8654
 CPU 0.10 s  wall 0.10 s

 Total DFTman time = 0.10 CPUs 0.10 Wall
Fock build time:  0.13 s (CPU) 0.13 s (wall)
DIIS Errors:  Max 8.40E-09 RMS 1.39E-09

Current DIIS subspace size = 10
REM_GRID_RESTART_DIIS = 0

   10     -76.4221464425      1.39E-09  00000 Convergence criterion met
 ---------------------------------------
 SCF time:  CPU 1.44 s  wall 1.48 s
 Eold:   -0.0112267 E_qmmm:  -76.433373179509 
Here are the indices for MO re-ordering:
0 1 2 3 4 5 6 7 8 9 10 11 12 13 15 18 14 16 17 19 20 21 22 Here are the indices for MO re-ordering:
0 1 2 3 4 5 6 7 8 9 10 11 12 13 15 18 14 16 17 19 20 21 22  SCF   energy in the final basis set = -76.4333731795
 Total energy in the final basis set = -76.4333731795
Symmetry turned off temporarily
 Analysis of SCF Wavefunction

 --------------------------------------------------------------
                    Orbital Energies (a.u.)
 --------------------------------------------------------------

 Alpha MOs
 -- Occupied --
-19.171  -1.020  -0.536  -0.398  -0.319
 -- Virtual --
  0.023   0.113   0.155   0.156   0.198   0.240   0.931   1.027
  1.114   1.114   1.151   1.251   1.709   1.725   1.758   2.257
  2.616   3.672
 --------------------------------------------------------------

          Ground-State Mulliken Net Atomic Charges

     Atom                 Charge (a.u.)
  ----------------------------------------
      1 O                    -0.919074
      2 H                     0.462323
      3 H                     0.456751
  ----------------------------------------
  Sum of atomic charges =     0.000000

 -----------------------------------------------------------------
                    Cartesian Multipole Moments
 -----------------------------------------------------------------
    Charge (ESU x 10^10)
                -0.0000
    Dipole Moment (Debye)
         X      -1.9310      Y       0.0297      Z       1.2295
       Tot       2.2894
    Quadrupole Moments (Debye-Ang)
        XX     -10.8850     XY       0.5606     YY      -5.3035
        XZ      -0.7011     YZ      -2.0843     ZZ      -4.7191
    Octapole Moments (Debye-Ang^2)
       XXX     -30.3172    XXY       6.2149    XYY      -6.6361
       YYY      11.0983    XXZ      -8.8156    XYZ      -1.4243
       YYZ      -1.8009    XZZ      -7.7664    YZZ       0.6953
       ZZZ     -14.7137
    Hexadecapole Moments (Debye-Ang^3)
      XXXX     -72.6380   XXXY      19.1785   XXYY     -14.2353
      XYYY      13.5161   YYYY     -22.7121   XXXZ     -26.0951
      XXYZ       3.7041   XYYZ      -3.1682   YYYZ       6.0222
      XXZZ     -19.1120   XYZZ       2.3372   YYZZ      -4.1788
      XZZZ     -19.5760   YZZZ       5.9659   ZZZZ     -34.3098
 -----------------------------------------------------------------
 Calculating analytic gradient of the SCF energy
 Job number = 111, Threshold = 1.00E-12
Integral type ranges set in mkLRange.C for JobNum: 11  <1-21|22-22>
Total number of integrals generated =             927
Finding J and K together
 ML is being used
 Job number = 122, Threshold = 1.00E-12
Integral type ranges set in mkLRange.C for JobNum: 22  <1-21|1-21>
Total number of integrals generated =           50238
 Gradient of Coulomb and Exchange Energy
            1           2           3
    1  -2.4734451   0.7400872   1.7333579
    2   0.0009202   1.7367553  -1.7376756
    3   1.5993356  -1.6253032   0.0259676
 CPU 0.00 s  wall 0.00 s
NTotSigB2 = 7836
Total Number of Grid Points = 8654
 CPU 0.28 s  wall 0.29 s

 Total DFTman time = 0.28 CPUs 0.29 Wall
 Gradient of SCF Energy
            1           2           3
    1   0.0154717  -0.0015835  -0.0138883
    2  -0.0134692   0.0029254   0.0105438
    3  -0.0011088  -0.0008817   0.0019906
 Max gradient component =       1.547E-02
 RMS gradient           =       9.079E-03
 Gradient time:  CPU 0.47 s  wall 0.48 s
 ------------------------------------------------------------------------------
                     drvman        : Timing summary (seconds)
 ------------------------------------------------------------------------------
     job step          cpu (% of tot)      sys (% of tot)     wall (% of tot)
 ------------------------------------------------------------------------------
 ------------------------------------------------------------------------------
   Grand Totals     0.4748E+00          0.4000E-05          0.4760E+00
 ------------------------------------------------------------------------------
 ----------------------------------------------------
       Standard Nuclear Orientation (Angstroms)
    I     Atom         X            Y            Z
 ----------------------------------------------------
    1      O      -0.795740     1.147029     0.906956
    2      H      -1.632952     1.283542     1.356241
    3      H      -0.702070     1.923599     0.348959
    4      O       1.196096    -0.700362     0.838941
    5      H       0.885298    -1.360079     1.475522
    6      H       0.481766    -0.016640     0.849621
 ----------------------------------------------------
 Nuclear Repulsion Energy =     0.0000000000 hartrees
 There are        5 alpha and        5 beta electrons
 Geometry Optimization Parameters
   NAtoms,    NIC,     NZ,  NCons,   NDum,   NFix, NCnnct, MaxDiis
        6      25       0       0       0       0       0       0

 Cartesian Hessian Update
 Hessian Updated using BFGS Update


** GEOMETRY OPTIMIZATION IN DELOCALIZED INTERNAL COORDINATES **
   Searching for a Minimum

   Optimization Cycle:   3

                       Coordinates (Angstroms)
     ATOM              X           Y           Z
      1  O        -0.795740    1.147029    0.906956
      2  H        -1.632952    1.283542    1.356241
      3  H        -0.702070    1.923599    0.348959
      4  O         1.196096   -0.700362    0.838941
      5  H         0.885298   -1.360079    1.475522
      6  H         0.481766   -0.016640    0.849621
   Point Group: c1    Number of degrees of freedom:    12


   Energy is    -76.433373180

 GETINT wrote B to file, NVib is           12
 Hessian Updated using BFGS Update

 12 Hessian modes will be used to form the next step
  Hessian Eigenvalues:
     0.002066    0.002231    0.070435    0.146249    0.159792    0.198608
     0.199989    0.226285    0.509545    0.539812    0.545193    0.556669

 Minimum Search - Taking Simple RFO Step
 Searching for Lamda that Minimizes Along All modes
 Value Taken    Lamda =  -0.00001023
 Step Taken.  Stepsize is  0.026785

                             Maximum     Tolerance    Cnvgd?
         Gradient           0.000639      0.000300      NO
         Displacement       0.022649      0.001200      NO
         Energy change     -0.000118      0.000001      NO


 New Cartesian Coordinates Obtained by Inverse Iteration

 Displacement from previous Coordinates is:  0.024066
 ----------------------------------------------------
       Standard Nuclear Orientation (Angstroms)
    I     Atom         X            Y            Z
 ----------------------------------------------------
    1      O      -0.794139     1.150230     0.913423
    2      H      -1.635338     1.285142     1.355508
    3      H      -0.703591     1.918805     0.344079
    4      O       1.198138    -0.699592     0.839767
    5      H       0.882679    -1.362116     1.471375
    6      H       0.484651    -0.015380     0.852088
 ----------------------------------------------------
 Nuclear Repulsion Energy =     0.0000000000 hartrees
 There are        5 alpha and        5 beta electrons
 opened zmat2 in MoleculeInput::write (get connectivity info)
   **** Step 1: MM calculation on the entire system **** 
 AMBER99 force field loaded.
 getting molecule information
 Reading atomic types. 
Wrote 0 MM bonds to file 840
 Time req'd to get MM system information: 0.0 s (CPU) 0.0 s (wall)

 ------ MM Energies ------
   Ebond:             0.623345572201
   Eangle:            0.050364568931
   EUreyBrad:         0.000000000000
   Eimptors:          0.000000000000
   Etorsion:          0.000000000000
   Evdw:              2.084170276325
   Ecoulomb:         -9.151679407661
   Etot:             -6.393798990205 Kcal/mol (     -0.010189167313 hartree)
 -------------------------
 Time req'd to calc MM energy: 0.0 s (CPU) 0.0 s (wall)
 Call to compute MM gradient 
 AMBER99 force field loaded.
 getting molecule information
 Reading atomic types. 
Wrote 0 MM bonds to file 840
 Time req'd to get MM system information: 0.0 s (CPU) 0.0 s (wall)
 Time req'd to calc MM gradient: 0.0 s (CPU) 0.0 s (wall)
   **** Step 2: MM calculation on the model system **** 
 In set_model_system 
 set_model_system n_atoms = 6
 1 Reading atomic types. 
 n_atoms_model: 3
 n_qm_bonds = 2
 ----------------------------------------------------
       Standard Nuclear Orientation (Angstroms)
    I     Atom         X            Y            Z
 ----------------------------------------------------
    1      O       1.198138    -0.699592     0.839767
    2      H       0.882679    -1.362116     1.471375
    3      H       0.484651    -0.015380     0.852088
 ----------------------------------------------------
 Nuclear Repulsion Energy =     8.9994772905 hartrees
 There are        5 alpha and        5 beta electrons
 AMBER99 force field loaded.
 getting molecule information
 Reading atomic types. 
Wrote 0 MM bonds to file 848
Finding angles...
Finding torsions...
Finding improper torsions...
 Time req'd to get MM system information: 0.0 s (CPU) 0.0 s (wall)

 ------ MM Energies ------
   Ebond:             0.612540977570
   Eangle:            0.044185707021
   EUreyBrad:         0.000000000000
   Eimptors:          0.000000000000
   Etorsion:          0.000000000000
   Evdw:              0.000000000000
   Ecoulomb:          0.000000000000
   Etot:              0.656726684591 Kcal/mol (      0.001046560594 hartree)
 -------------------------
 Eold:   -0.0101892 mm_energy:    0.0010466 Enew:   -0.0112357
 Time req'd to calc MM energy: 0.0 s (CPU) 0.0 s (wall)
 Call to compute MM gradient 
 AMBER99 force field loaded.
 getting molecule information
 Reading atomic types. 
Wrote 0 MM bonds to file 848
Finding angles...
Finding torsions...
Finding improper torsions...
 Time req'd to get MM system information: 0.0 s (CPU) 0.0 s (wall)
 Time req'd to calc MM gradient: 0.0 s (CPU) 0.0 s (wall)
   **** Step 3: QM calculation on the model system **** 
 Requested basis set is 6-31+G(d)
 There are 9 shells and 23 basis functions
 Job number = 2, Threshold = 1.00E-12
Integral type ranges set in mkLRange.C for JobNum: 2  <1-21|1-21>
Symmetry turned off temporarily
Total number of integrals generated =            4995
Symmetry turned back on
 A cutoff of  1.0D-12 yielded     45 shell pairs
 There are       309 function pairs
 Job number = 11, Threshold = 1.00E-12
Integral type ranges set in mkLRange.C for JobNum: 11  <1-21|22-22>
Total number of integrals generated =             927
 Smallest overlap matrix eigenvalue = 1.83E-02
 Multipole matrices computed through 2nd order
 Guess from superposition of atomic densities
 Warning:  Energy on first SCF cycle will be non-variational
 A restricted hybrid HF-DFT SCF calculation will be
 performed using Pulay DIIS extrapolation
 Exchange:     0.2000 Hartree-Fock + 0.0800 Slater + 0.7200 Becke88
 Correlation:  0.8100 LYP + 0.1900 VWN1RPA
 Using SG-1 standard quadrature grid
 SCF converges when DIIS error is below 1.0E-08
Finding J and K together
 Job number = 22, Threshold = 1.00E-12
Integral type ranges set in mkLRange.C for JobNum: 22  <1-21|1-21>
Storing 3796.18% of integrals
Total number of integrals generated =           51165
Target Grid is being used
 CPU 0.00 s  wall 0.00 s
NTotSigB2 = 7836
Total Number of Grid Points = 8654
 CPU 0.11 s  wall 0.11 s

 Total DFTman time = 0.11 CPUs 0.11 Wall
Fock build time:  0.14 s (CPU) 0.15 s (wall)
DIIS Errors:  Max 8.03E-01 RMS 1.33E-01

Current DIIS subspace size = 1
REM_GRID_RESTART_DIIS = 0

 ---------------------------------------
  Cycle       Energy         DIIS Error
 ---------------------------------------
    1     -76.3783113566      1.33E-01  00000
Finding J and K together
 Job number = 22, Threshold = 1.00E-12
Integral type ranges set in mkLRange.C for JobNum: 22  <1-21|1-21>
Storing 3796.18% of integrals
Reusing in-core integrals buffer for job 22
Target Grid is being used
 CPU 0.00 s  wall 0.00 s
NTotSigB2 = 7836
Total Number of Grid Points = 8654
 CPU 0.12 s  wall 0.12 s

 Total DFTman time = 0.12 CPUs 0.12 Wall
Fock build time:  0.15 s (CPU) 0.15 s (wall)
DIIS Errors:  Max 2.20E-01 RMS 3.54E-02

Current DIIS subspace size = 2
REM_GRID_RESTART_DIIS = 0

    2     -76.3572135208      3.54E-02  00000
Finding J and K together
 Job number = 22, Threshold = 1.00E-12
Integral type ranges set in mkLRange.C for JobNum: 22  <1-21|1-21>
Storing 3796.18% of integrals
Reusing in-core integrals buffer for job 22
Target Grid is being used
 CPU 0.00 s  wall 0.00 s
NTotSigB2 = 7836
Total Number of Grid Points = 8654
 CPU 0.12 s  wall 0.12 s

 Total DFTman time = 0.12 CPUs 0.12 Wall
Fock build time:  0.15 s (CPU) 0.15 s (wall)
DIIS Errors:  Max 3.25E-01 RMS 5.38E-02

Current DIIS subspace size = 3
REM_GRID_RESTART_DIIS = 0

    3     -76.2781450338      5.38E-02  00000
Finding J and K together
 Job number = 22, Threshold = 1.00E-12
Integral type ranges set in mkLRange.C for JobNum: 22  <1-21|1-21>
Storing 3796.18% of integrals
Reusing in-core integrals buffer for job 22
Target Grid is being used
 CPU 0.00 s  wall 0.00 s
NTotSigB2 = 7836
Total Number of Grid Points = 8654
 CPU 0.12 s  wall 0.12 s

 Total DFTman time = 0.12 CPUs 0.12 Wall
Fock build time:  0.15 s (CPU) 0.15 s (wall)
DIIS Errors:  Max 5.84E-03 RMS 1.34E-03

Current DIIS subspace size = 4
REM_GRID_RESTART_DIIS = 0

    4     -76.4220472205      1.34E-03  00000
Finding J and K together
 Job number = 22, Threshold = 1.00E-12
Integral type ranges set in mkLRange.C for JobNum: 22  <1-21|1-21>
Storing 3796.18% of integrals
Reusing in-core integrals buffer for job 22
Target Grid is being used
 CPU 0.00 s  wall 0.00 s
NTotSigB2 = 7836
Total Number of Grid Points = 8654
 CPU 0.12 s  wall 0.12 s

 Total DFTman time = 0.12 CPUs 0.12 Wall
Fock build time:  0.14 s (CPU) 0.15 s (wall)
DIIS Errors:  Max 1.02E-03 RMS 2.19E-04

Current DIIS subspace size = 5
REM_GRID_RESTART_DIIS = 0

    5     -76.4221432787      2.19E-04  00000
Finding J and K together
 Job number = 22, Threshold = 1.00E-12
Integral type ranges set in mkLRange.C for JobNum: 22  <1-21|1-21>
Storing 3796.18% of integrals
Reusing in-core integrals buffer for job 22
Target Grid is being used
 CPU 0.00 s  wall 0.00 s
NTotSigB2 = 7836
Total Number of Grid Points = 8654
 CPU 0.12 s  wall 0.12 s

 Total DFTman time = 0.12 CPUs 0.12 Wall
Fock build time:  0.14 s (CPU) 0.15 s (wall)
DIIS Errors:  Max 2.72E-04 RMS 4.14E-05

Current DIIS subspace size = 6
REM_GRID_RESTART_DIIS = 0

    6     -76.4221454427      4.14E-05  00000
Finding J and K together
 Job number = 22, Threshold = 1.00E-12
Integral type ranges set in mkLRange.C for JobNum: 22  <1-21|1-21>
Storing 3796.18% of integrals
Reusing in-core integrals buffer for job 22
Target Grid is being used
 CPU 0.00 s  wall 0.00 s
NTotSigB2 = 7836
Total Number of Grid Points = 8654
 CPU 0.12 s  wall 0.12 s

 Total DFTman time = 0.12 CPUs 0.12 Wall
Fock build time:  0.14 s (CPU) 0.15 s (wall)
DIIS Errors:  Max 4.53E-06 RMS 1.16E-06

Current DIIS subspace size = 7
REM_GRID_RESTART_DIIS = 0

    7     -76.4221455269      1.16E-06  00000
Finding J and K together
 Job number = 22, Threshold = 1.00E-12
Integral type ranges set in mkLRange.C for JobNum: 22  <1-21|1-21>
Storing 3796.18% of integrals
Reusing in-core integrals buffer for job 22
Target Grid is being used
 CPU 0.00 s  wall 0.00 s
NTotSigB2 = 7836
Total Number of Grid Points = 8654
 CPU 0.12 s  wall 0.12 s

 Total DFTman time = 0.12 CPUs 0.12 Wall
Fock build time:  0.14 s (CPU) 0.15 s (wall)
DIIS Errors:  Max 1.43E-06 RMS 2.95E-07

Current DIIS subspace size = 8
REM_GRID_RESTART_DIIS = 0

    8     -76.4221455270      2.95E-07  00000
Finding J and K together
 Job number = 22, Threshold = 1.00E-12
Integral type ranges set in mkLRange.C for JobNum: 22  <1-21|1-21>
Storing 3796.18% of integrals
Reusing in-core integrals buffer for job 22
Target Grid is being used
 CPU 0.00 s  wall 0.00 s
NTotSigB2 = 7836
Total Number of Grid Points = 8654
 CPU 0.11 s  wall 0.11 s

 Total DFTman time = 0.11 CPUs 0.11 Wall
Fock build time:  0.14 s (CPU) 0.14 s (wall)
DIIS Errors:  Max 1.66E-07 RMS 2.86E-08

Current DIIS subspace size = 9
REM_GRID_RESTART_DIIS = 0

    9     -76.4221455270      2.86E-08  00000
Finding J and K together
 Job number = 22, Threshold = 1.00E-12
Integral type ranges set in mkLRange.C for JobNum: 22  <1-21|1-21>
Storing 3796.18% of integrals
Reusing in-core integrals buffer for job 22
Target Grid is being used
 CPU 0.00 s  wall 0.00 s
NTotSigB2 = 7836
Total Number of Grid Points = 8654
 CPU 0.10 s  wall 0.10 s

 Total DFTman time = 0.10 CPUs 0.10 Wall
Fock build time:  0.13 s (CPU) 0.13 s (wall)
DIIS Errors:  Max 8.48E-09 RMS 1.41E-09

Current DIIS subspace size = 10
REM_GRID_RESTART_DIIS = 0

   10     -76.4221455270      1.41E-09  00000 Convergence criterion met
 ---------------------------------------
 SCF time:  CPU 1.44 s  wall 1.48 s
 Eold:   -0.0112357 E_qmmm:  -76.433381254878 
Here are the indices for MO re-ordering:
0 1 2 3 4 5 6 7 8 9 10 11 12 13 15 18 14 16 17 19 20 21 22 Here are the indices for MO re-ordering:
0 1 2 3 4 5 6 7 8 9 10 11 12 13 15 18 14 16 17 19 20 21 22  SCF   energy in the final basis set = -76.4333812549
 Total energy in the final basis set = -76.4333812549
Symmetry turned off temporarily
 Analysis of SCF Wavefunction

 --------------------------------------------------------------
                    Orbital Energies (a.u.)
 --------------------------------------------------------------

 Alpha MOs
 -- Occupied --
-19.171  -1.020  -0.536  -0.398  -0.319
 -- Virtual --
  0.023   0.113   0.155   0.156   0.198   0.240   0.931   1.027
  1.114   1.114   1.151   1.251   1.708   1.725   1.758   2.257
  2.616   3.672
 --------------------------------------------------------------

          Ground-State Mulliken Net Atomic Charges

     Atom                 Charge (a.u.)
  ----------------------------------------
      1 O                    -0.918880
      2 H                     0.462176
      3 H                     0.456705
  ----------------------------------------
  Sum of atomic charges =    -0.000000

 -----------------------------------------------------------------
                    Cartesian Multipole Moments
 -----------------------------------------------------------------
    Charge (ESU x 10^10)
                -0.0000
    Dipole Moment (Debye)
         X      -1.9376      Y       0.0255      Z       1.2225
       Tot       2.2912
    Quadrupole Moments (Debye-Ang)
        XX     -10.9041     XY       0.5709     YY      -5.2840
        XZ      -0.7216     YZ      -2.0736     ZZ      -4.7473
    Octapole Moments (Debye-Ang^2)
       XXX     -30.3913    XXY       6.2349    XYY      -6.6473
       YYY      11.0489    XXZ      -8.8594    XYZ      -1.3967
       YYZ      -1.8046    XZZ      -7.8292    YZZ       0.7276
       ZZZ     -14.7951
    Hexadecapole Moments (Debye-Ang^3)
      XXXX     -72.8723   XXXY      19.2294   XXYY     -14.2719
      XYYY      13.5122   YYYY     -22.6152   XXXZ     -26.2079
      XXYZ       3.7480   XYYZ      -3.2048   YYYZ       6.0047
      XXZZ     -19.2255   XYZZ       2.3990   YYZZ      -4.2094
      XZZZ     -19.7231   YZZZ       6.0460   ZZZZ     -34.4908
 -----------------------------------------------------------------
 Calculating analytic gradient of the SCF energy
 Job number = 111, Threshold = 1.00E-12
Integral type ranges set in mkLRange.C for JobNum: 11  <1-21|22-22>
Total number of integrals generated =             927
Finding J and K together
 ML is being used
 Job number = 122, Threshold = 1.00E-12
Integral type ranges set in mkLRange.C for JobNum: 22  <1-21|1-21>
Total number of integrals generated =           50238
 Gradient of Coulomb and Exchange Energy
            1           2           3
    1  -2.4842648   0.7526123   1.7316525
    2  -0.0036339   1.7419003  -1.7382664
    3   1.5910421  -1.6115127   0.0204707
 CPU 0.00 s  wall 0.00 s
NTotSigB2 = 7836
Total Number of Grid Points = 8654
 CPU 0.29 s  wall 0.29 s

 Total DFTman time = 0.29 CPUs 0.29 Wall
 Gradient of SCF Energy
            1           2           3
    1   0.0155428  -0.0017615  -0.0137813
    2  -0.0132174   0.0029562   0.0102612
    3  -0.0013487  -0.0007739   0.0021225
 Max gradient component =       1.554E-02
 RMS gradient           =       9.008E-03
 Gradient time:  CPU 0.48 s  wall 0.48 s
 ------------------------------------------------------------------------------
                     drvman        : Timing summary (seconds)
 ------------------------------------------------------------------------------
     job step          cpu (% of tot)      sys (% of tot)     wall (% of tot)
 ------------------------------------------------------------------------------
 ------------------------------------------------------------------------------
   Grand Totals     0.4758E+00          0.4000E-05          0.4780E+00
 ------------------------------------------------------------------------------
 ----------------------------------------------------
       Standard Nuclear Orientation (Angstroms)
    I     Atom         X            Y            Z
 ----------------------------------------------------
    1      O      -0.794139     1.150230     0.913423
    2      H      -1.635338     1.285142     1.355508
    3      H      -0.703591     1.918805     0.344079
    4      O       1.198138    -0.699592     0.839767
    5      H       0.882679    -1.362116     1.471375
    6      H       0.484651    -0.015380     0.852088
 ----------------------------------------------------
 Nuclear Repulsion Energy =     0.0000000000 hartrees
 There are        5 alpha and        5 beta electrons
 Geometry Optimization Parameters
   NAtoms,    NIC,     NZ,  NCons,   NDum,   NFix, NCnnct, MaxDiis
        6      25       0       0       0       0       0       0

 Cartesian Hessian Update
 Hessian Updated using BFGS Update


** GEOMETRY OPTIMIZATION IN DELOCALIZED INTERNAL COORDINATES **
   Searching for a Minimum

   Optimization Cycle:   4

                       Coordinates (Angstroms)
     ATOM              X           Y           Z
      1  O        -0.794139    1.150230    0.913423
      2  H        -1.635338    1.285142    1.355508
      3  H        -0.703591    1.918805    0.344079
      4  O         1.198138   -0.699592    0.839767
      5  H         0.882679   -1.362116    1.471375
      6  H         0.484651   -0.015380    0.852088
   Point Group: c1    Number of degrees of freedom:    12


   Energy is    -76.433381255

 GETINT wrote B to file, NVib is           12
 Hessian Updated using BFGS Update

 12 Hessian modes will be used to form the next step
  Hessian Eigenvalues:
     0.002046    0.003711    0.024470    0.087947    0.169635    0.197769
     0.200890    0.257162    0.507088    0.543808    0.545223    0.556831

 Minimum Search - Taking Simple RFO Step
 Searching for Lamda that Minimizes Along All modes
 Value Taken    Lamda =  -0.00003305
 Step Taken.  Stepsize is  0.040776

                             Maximum     Tolerance    Cnvgd?
         Gradient           0.000569      0.000300      NO
         Displacement       0.021412      0.001200      NO
         Energy change     -0.000008      0.000001      NO


 New Cartesian Coordinates Obtained by Inverse Iteration

 Displacement from previous Coordinates is:  0.043043
 ----------------------------------------------------
       Standard Nuclear Orientation (Angstroms)
    I     Atom         X            Y            Z
 ----------------------------------------------------
    1      O      -0.800939     1.150035     0.920533
    2      H      -1.643718     1.297010     1.355235
    3      H      -0.699404     1.909520     0.341218
    4      O       1.203939    -0.698852     0.839980
    5      H       0.882348    -1.364370     1.466161
    6      H       0.490173    -0.016253     0.853112
 ----------------------------------------------------
 Nuclear Repulsion Energy =     0.0000000000 hartrees
 There are        5 alpha and        5 beta electrons
 opened zmat2 in MoleculeInput::write (get connectivity info)
   **** Step 1: MM calculation on the entire system **** 
 AMBER99 force field loaded.
 getting molecule information
 Reading atomic types. 
Wrote 0 MM bonds to file 840
 Time req'd to get MM system information: 0.0 s (CPU) 0.0 s (wall)

 ------ MM Energies ------
   Ebond:             0.597919292491
   Eangle:            0.066841868626
   EUreyBrad:         0.000000000000
   Eimptors:          0.000000000000
   Etorsion:          0.000000000000
   Evdw:              1.977175730107
   Ecoulomb:         -9.052275762164
   Etot:             -6.410338870940 Kcal/mol (     -0.010215525290 hartree)
 -------------------------
 Time req'd to calc MM energy: 0.0 s (CPU) 0.0 s (wall)
 Call to compute MM gradient 
 AMBER99 force field loaded.
 getting molecule information
 Reading atomic types. 
Wrote 0 MM bonds to file 840
 Time req'd to get MM system information: 0.0 s (CPU) 0.0 s (wall)
 Time req'd to calc MM gradient: 0.0 s (CPU) 0.0 s (wall)
   **** Step 2: MM calculation on the model system **** 
 In set_model_system 
 set_model_system n_atoms = 6
 1 Reading atomic types. 
 n_atoms_model: 3
 n_qm_bonds = 2
 ----------------------------------------------------
       Standard Nuclear Orientation (Angstroms)
    I     Atom         X            Y            Z
 ----------------------------------------------------
    1      O       1.203939    -0.698852     0.839980
    2      H       0.882348    -1.364370     1.466161
    3      H       0.490173    -0.016253     0.853112
 ----------------------------------------------------
 Nuclear Repulsion Energy =     9.0015679189 hartrees
 There are        5 alpha and        5 beta electrons
 AMBER99 force field loaded.
 getting molecule information
 Reading atomic types. 
Wrote 0 MM bonds to file 848
Finding angles...
Finding torsions...
Finding improper torsions...
 Time req'd to get MM system information: 0.0 s (CPU) 0.0 s (wall)

 ------ MM Energies ------
   Ebond:             0.588365343256
   Eangle:            0.063276918573
   EUreyBrad:         0.000000000000
   Eimptors:          0.000000000000
   Etorsion:          0.000000000000
   Evdw:              0.000000000000
   Ecoulomb:          0.000000000000
   Etot:              0.651642261829 Kcal/mol (      0.001038458050 hartree)
 -------------------------
 Eold:   -0.0102155 mm_energy:    0.0010385 Enew:   -0.0112540
 Time req'd to calc MM energy: 0.0 s (CPU) 0.0 s (wall)
 Call to compute MM gradient 
 AMBER99 force field loaded.
 getting molecule information
 Reading atomic types. 
Wrote 0 MM bonds to file 848
Finding angles...
Finding torsions...
Finding improper torsions...
 Time req'd to get MM system information: 0.0 s (CPU) 0.0 s (wall)
 Time req'd to calc MM gradient: 0.0 s (CPU) 0.0 s (wall)
   **** Step 3: QM calculation on the model system **** 
 Requested basis set is 6-31+G(d)
 There are 9 shells and 23 basis functions
 Job number = 2, Threshold = 1.00E-12
Integral type ranges set in mkLRange.C for JobNum: 2  <1-21|1-21>
Symmetry turned off temporarily
Total number of integrals generated =            4995
Symmetry turned back on
 A cutoff of  1.0D-12 yielded     45 shell pairs
 There are       309 function pairs
 Job number = 11, Threshold = 1.00E-12
Integral type ranges set in mkLRange.C for JobNum: 11  <1-21|22-22>
Total number of integrals generated =             927
 Smallest overlap matrix eigenvalue = 1.83E-02
 Multipole matrices computed through 2nd order
 Guess from superposition of atomic densities
 Warning:  Energy on first SCF cycle will be non-variational
 A restricted hybrid HF-DFT SCF calculation will be
 performed using Pulay DIIS extrapolation
 Exchange:     0.2000 Hartree-Fock + 0.0800 Slater + 0.7200 Becke88
 Correlation:  0.8100 LYP + 0.1900 VWN1RPA
 Using SG-1 standard quadrature grid
 SCF converges when DIIS error is below 1.0E-08
Finding J and K together
 Job number = 22, Threshold = 1.00E-12
Integral type ranges set in mkLRange.C for JobNum: 22  <1-21|1-21>
Storing 3796.18% of integrals
Total number of integrals generated =           51165
Target Grid is being used
 CPU 0.00 s  wall 0.00 s
NTotSigB2 = 7836
Total Number of Grid Points = 8654
 CPU 0.11 s  wall 0.11 s

 Total DFTman time = 0.11 CPUs 0.11 Wall
Fock build time:  0.14 s (CPU) 0.15 s (wall)
DIIS Errors:  Max 8.03E-01 RMS 1.33E-01

Current DIIS subspace size = 1
REM_GRID_RESTART_DIIS = 0

 ---------------------------------------
  Cycle       Energy         DIIS Error
 ---------------------------------------
    1     -76.3786378420      1.33E-01  00000
Finding J and K together
 Job number = 22, Threshold = 1.00E-12
Integral type ranges set in mkLRange.C for JobNum: 22  <1-21|1-21>
Storing 3796.18% of integrals
Reusing in-core integrals buffer for job 22
Target Grid is being used
 CPU 0.00 s  wall 0.00 s
NTotSigB2 = 7836
Total Number of Grid Points = 8654
 CPU 0.12 s  wall 0.12 s

 Total DFTman time = 0.12 CPUs 0.12 Wall
Fock build time:  0.15 s (CPU) 0.15 s (wall)
DIIS Errors:  Max 2.20E-01 RMS 3.54E-02

Current DIIS subspace size = 2
REM_GRID_RESTART_DIIS = 0

    2     -76.3572180273      3.54E-02  00000
Finding J and K together
 Job number = 22, Threshold = 1.00E-12
Integral type ranges set in mkLRange.C for JobNum: 22  <1-21|1-21>
Storing 3796.18% of integrals
Reusing in-core integrals buffer for job 22
Target Grid is being used
 CPU 0.00 s  wall 0.00 s
NTotSigB2 = 7836
Total Number of Grid Points = 8654
 CPU 0.12 s  wall 0.12 s

 Total DFTman time = 0.12 CPUs 0.12 Wall
Fock build time:  0.15 s (CPU) 0.15 s (wall)
DIIS Errors:  Max 3.26E-01 RMS 5.38E-02

Current DIIS subspace size = 3
REM_GRID_RESTART_DIIS = 0

    3     -76.2781354988      5.38E-02  00000
Finding J and K together
 Job number = 22, Threshold = 1.00E-12
Integral type ranges set in mkLRange.C for JobNum: 22  <1-21|1-21>
Storing 3796.18% of integrals
Reusing in-core integrals buffer for job 22
Target Grid is being used
 CPU 0.00 s  wall 0.00 s
NTotSigB2 = 7836
Total Number of Grid Points = 8654
 CPU 0.12 s  wall 0.12 s

 Total DFTman time = 0.12 CPUs 0.12 Wall
Fock build time:  0.15 s (CPU) 0.15 s (wall)
DIIS Errors:  Max 5.88E-03 RMS 1.34E-03

Current DIIS subspace size = 4
REM_GRID_RESTART_DIIS = 0

    4     -76.4220538277      1.34E-03  00000
Finding J and K together
 Job number = 22, Threshold = 1.00E-12
Integral type ranges set in mkLRange.C for JobNum: 22  <1-21|1-21>
Storing 3796.18% of integrals
Reusing in-core integrals buffer for job 22
Target Grid is being used
 CPU 0.00 s  wall 0.00 s
NTotSigB2 = 7836
Total Number of Grid Points = 8654
 CPU 0.12 s  wall 0.12 s

 Total DFTman time = 0.12 CPUs 0.12 Wall
Fock build time:  0.15 s (CPU) 0.15 s (wall)
DIIS Errors:  Max 1.02E-03 RMS 2.19E-04

Current DIIS subspace size = 5
REM_GRID_RESTART_DIIS = 0

    5     -76.4221499175      2.19E-04  00000
Finding J and K together
 Job number = 22, Threshold = 1.00E-12
Integral type ranges set in mkLRange.C for JobNum: 22  <1-21|1-21>
Storing 3796.18% of integrals
Reusing in-core integrals buffer for job 22
Target Grid is being used
 CPU 0.00 s  wall 0.00 s
NTotSigB2 = 7836
Total Number of Grid Points = 8654
 CPU 0.12 s  wall 0.12 s

 Total DFTman time = 0.12 CPUs 0.12 Wall
Fock build time:  0.14 s (CPU) 0.15 s (wall)
DIIS Errors:  Max 2.73E-04 RMS 4.14E-05

Current DIIS subspace size = 6
REM_GRID_RESTART_DIIS = 0

[...]
    4      O       1.210510    -0.681744     0.839959
    5      H       0.890801    -1.365167     1.446683
    6      H       0.488659    -0.008188     0.854239
 ----------------------------------------------------
 Nuclear Repulsion Energy =     0.0000000000 hartrees
 There are        5 alpha and        5 beta electrons
 Geometry Optimization Parameters
   NAtoms,    NIC,     NZ,  NCons,   NDum,   NFix, NCnnct, MaxDiis
        6      25       0       0       0       0       0       0

 Cartesian Hessian Update
 Hessian Updated using BFGS Update


** GEOMETRY OPTIMIZATION IN DELOCALIZED INTERNAL COORDINATES **
   Searching for a Minimum

   Optimization Cycle:  10

                       Coordinates (Angstroms)
     ATOM              X           Y           Z
      1  O        -0.830393    1.123819    0.939082
      2  H        -1.666947    1.349342    1.352234
      3  H        -0.660231    1.859027    0.344043
      4  O         1.210510   -0.681744    0.839959
      5  H         0.890801   -1.365167    1.446683
      6  H         0.488659   -0.008188    0.854239
   Point Group: c1    Number of degrees of freedom:    12


   Energy is    -76.433470047

 GETINT wrote B to file, NVib is           12
 Hessian Updated using BFGS Update

 12 Hessian modes will be used to form the next step
  Hessian Eigenvalues:
     0.001857    0.003837    0.007482    0.016070    0.173474    0.194030
     0.200704    0.250688    0.492741    0.544690    0.545686    0.559564

 Minimum Search - Taking Simple RFO Step
 Searching for Lamda that Minimizes Along All modes
 Value Taken    Lamda =  -0.00000133
 Step Taken.  Stepsize is  0.007431

                             Maximum     Tolerance    Cnvgd?
         Gradient           0.000317      0.000300      NO
         Displacement       0.004459      0.001200      NO
         Energy change     -0.000004      0.000001      NO


 New Cartesian Coordinates Obtained by Inverse Iteration

 Displacement from previous Coordinates is:  0.007754
 ----------------------------------------------------
       Standard Nuclear Orientation (Angstroms)
    I     Atom         X            Y            Z
 ----------------------------------------------------
    1      O      -0.828842     1.123696     0.939951
    2      H      -1.666055     1.348013     1.352327
    3      H      -0.659998     1.857613     0.342992
    4      O       1.210177    -0.680560     0.840037
    5      H       0.889239    -1.364576     1.445734
    6      H       0.487878    -0.007095     0.855200
 ----------------------------------------------------
 Nuclear Repulsion Energy =     0.0000000000 hartrees
 There are        5 alpha and        5 beta electrons
 opened zmat2 in MoleculeInput::write (get connectivity info)
   **** Step 1: MM calculation on the entire system **** 
 AMBER99 force field loaded.
 getting molecule information
 Reading atomic types. 
Wrote 0 MM bonds to file 840
 Time req'd to get MM system information: 0.0 s (CPU) 0.0 s (wall)

 ------ MM Energies ------
   Ebond:             0.594391377628
   Eangle:            0.055768641795
   EUreyBrad:         0.000000000000
   Eimptors:          0.000000000000
   Etorsion:          0.000000000000
   Evdw:              2.024436749879
   Ecoulomb:         -9.134767821953
   Etot:             -6.460171052650 Kcal/mol (     -0.010294937927 hartree)
 -------------------------
 Time req'd to calc MM energy: 0.0 s (CPU) 0.0 s (wall)
 Call to compute MM gradient 
 AMBER99 force field loaded.
 getting molecule information
 Reading atomic types. 
Wrote 0 MM bonds to file 840
 Time req'd to get MM system information: 0.0 s (CPU) 0.0 s (wall)
 Time req'd to calc MM gradient: 0.0 s (CPU) 0.0 s (wall)
   **** Step 2: MM calculation on the model system **** 
 In set_model_system 
 set_model_system n_atoms = 6
 1 Reading atomic types. 
 n_atoms_model: 3
 n_qm_bonds = 2
 ----------------------------------------------------
       Standard Nuclear Orientation (Angstroms)
    I     Atom         X            Y            Z
 ----------------------------------------------------
    1      O       1.210177    -0.680560     0.840037
    2      H       0.889239    -1.364576     1.445734
    3      H       0.487878    -0.007095     0.855200
 ----------------------------------------------------
 Nuclear Repulsion Energy =     9.0029385025 hartrees
 There are        5 alpha and        5 beta electrons
 AMBER99 force field loaded.
 getting molecule information
 Reading atomic types. 
Wrote 0 MM bonds to file 848
Finding angles...
Finding torsions...
Finding improper torsions...
 Time req'd to get MM system information: 0.0 s (CPU) 0.0 s (wall)

 ------ MM Energies ------
   Ebond:             0.582582628503
   Eangle:            0.047019346499
   EUreyBrad:         0.000000000000
   Eimptors:          0.000000000000
   Etorsion:          0.000000000000
   Evdw:              0.000000000000
   Ecoulomb:          0.000000000000
   Etot:              0.629601975002 Kcal/mol (      0.001003334617 hartree)
 -------------------------
 Eold:   -0.0102949 mm_energy:    0.0010033 Enew:   -0.0112983
 Time req'd to calc MM energy: 0.0 s (CPU) 0.0 s (wall)
 Call to compute MM gradient 
 AMBER99 force field loaded.
 getting molecule information
 Reading atomic types. 
Wrote 0 MM bonds to file 848
Finding angles...
Finding torsions...
Finding improper torsions...
 Time req'd to get MM system information: 0.0 s (CPU) 0.0 s (wall)
 Time req'd to calc MM gradient: 0.0 s (CPU) 0.0 s (wall)
   **** Step 3: QM calculation on the model system **** 
 Requested basis set is 6-31+G(d)
 There are 9 shells and 23 basis functions
 Job number = 2, Threshold = 1.00E-12
Integral type ranges set in mkLRange.C for JobNum: 2  <1-21|1-21>
Symmetry turned off temporarily
Total number of integrals generated =            4995
Symmetry turned back on
 A cutoff of  1.0D-12 yielded     45 shell pairs
 There are       309 function pairs
 Job number = 11, Threshold = 1.00E-12
Integral type ranges set in mkLRange.C for JobNum: 11  <1-21|22-22>
Total number of integrals generated =             927
 Smallest overlap matrix eigenvalue = 1.83E-02
 Multipole matrices computed through 2nd order
 Guess from superposition of atomic densities
 Warning:  Energy on first SCF cycle will be non-variational
 A restricted hybrid HF-DFT SCF calculation will be
 performed using Pulay DIIS extrapolation
 Exchange:     0.2000 Hartree-Fock + 0.0800 Slater + 0.7200 Becke88
 Correlation:  0.8100 LYP + 0.1900 VWN1RPA
 Using SG-1 standard quadrature grid
 SCF converges when DIIS error is below 1.0E-08
Finding J and K together
 Job number = 22, Threshold = 1.00E-12
Integral type ranges set in mkLRange.C for JobNum: 22  <1-21|1-21>
Storing 3796.18% of integrals
Total number of integrals generated =           51165
Target Grid is being used
 CPU 0.00 s  wall 0.00 s
NTotSigB2 = 7836
Total Number of Grid Points = 8654
 CPU 0.11 s  wall 0.12 s

 Total DFTman time = 0.11 CPUs 0.12 Wall
Fock build time:  0.15 s (CPU) 0.16 s (wall)
DIIS Errors:  Max 8.03E-01 RMS 1.33E-01

Current DIIS subspace size = 1
REM_GRID_RESTART_DIIS = 0

 ---------------------------------------
  Cycle       Energy         DIIS Error
 ---------------------------------------
    1     -76.3787544490      1.33E-01  00000
Finding J and K together
 Job number = 22, Threshold = 1.00E-12
Integral type ranges set in mkLRange.C for JobNum: 22  <1-21|1-21>
Storing 3796.18% of integrals
Reusing in-core integrals buffer for job 22
Target Grid is being used
 CPU 0.00 s  wall 0.00 s
NTotSigB2 = 7836
Total Number of Grid Points = 8654
 CPU 0.12 s  wall 0.12 s

 Total DFTman time = 0.12 CPUs 0.12 Wall
Fock build time:  0.15 s (CPU) 0.15 s (wall)
DIIS Errors:  Max 2.22E-01 RMS 3.54E-02

Current DIIS subspace size = 2
REM_GRID_RESTART_DIIS = 0

    2     -76.3572287048      3.54E-02  00000
Finding J and K together
 Job number = 22, Threshold = 1.00E-12
Integral type ranges set in mkLRange.C for JobNum: 22  <1-21|1-21>
Storing 3796.18% of integrals
Reusing in-core integrals buffer for job 22
Target Grid is being used
 CPU 0.00 s  wall 0.00 s
NTotSigB2 = 7836
Total Number of Grid Points = 8654
 CPU 0.12 s  wall 0.12 s

 Total DFTman time = 0.12 CPUs 0.12 Wall
Fock build time:  0.15 s (CPU) 0.15 s (wall)
DIIS Errors:  Max 3.29E-01 RMS 5.38E-02

Current DIIS subspace size = 3
REM_GRID_RESTART_DIIS = 0

    3     -76.2782250086      5.38E-02  00000
Finding J and K together
 Job number = 22, Threshold = 1.00E-12
Integral type ranges set in mkLRange.C for JobNum: 22  <1-21|1-21>
Storing 3796.18% of integrals
Reusing in-core integrals buffer for job 22
Target Grid is being used
 CPU 0.00 s  wall 0.00 s
NTotSigB2 = 7836
Total Number of Grid Points = 8654
 CPU 0.12 s  wall 0.12 s

 Total DFTman time = 0.12 CPUs 0.12 Wall
Fock build time:  0.15 s (CPU) 0.15 s (wall)
DIIS Errors:  Max 5.98E-03 RMS 1.34E-03

Current DIIS subspace size = 4
REM_GRID_RESTART_DIIS = 0

    4     -76.4220744122      1.34E-03  00000
Finding J and K together
 Job number = 22, Threshold = 1.00E-12
Integral type ranges set in mkLRange.C for JobNum: 22  <1-21|1-21>
Storing 3796.18% of integrals
Reusing in-core integrals buffer for job 22
Target Grid is being used
 CPU 0.00 s  wall 0.00 s
NTotSigB2 = 7836
Total Number of Grid Points = 8654
 CPU 0.12 s  wall 0.12 s

 Total DFTman time = 0.12 CPUs 0.12 Wall
Fock build time:  0.15 s (CPU) 0.15 s (wall)
DIIS Errors:  Max 1.03E-03 RMS 2.19E-04

Current DIIS subspace size = 5
REM_GRID_RESTART_DIIS = 0

    5     -76.4221703893      2.19E-04  00000
Finding J and K together
 Job number = 22, Threshold = 1.00E-12
Integral type ranges set in mkLRange.C for JobNum: 22  <1-21|1-21>
Storing 3796.18% of integrals
Reusing in-core integrals buffer for job 22
Target Grid is being used
 CPU 0.00 s  wall 0.00 s
NTotSigB2 = 7836
Total Number of Grid Points = 8654
 CPU 0.12 s  wall 0.12 s

 Total DFTman time = 0.12 CPUs 0.12 Wall
Fock build time:  0.14 s (CPU) 0.15 s (wall)
DIIS Errors:  Max 2.75E-04 RMS 4.14E-05

Current DIIS subspace size = 6
REM_GRID_RESTART_DIIS = 0

    6     -76.4221725503      4.14E-05  00000
Finding J and K together
 Job number = 22, Threshold = 1.00E-12
Integral type ranges set in mkLRange.C for JobNum: 22  <1-21|1-21>
Storing 3796.18% of integrals
Reusing in-core integrals buffer for job 22
Target Grid is being used
 CPU 0.00 s  wall 0.00 s
NTotSigB2 = 7836
Total Number of Grid Points = 8654
 CPU 0.12 s  wall 0.12 s

 Total DFTman time = 0.12 CPUs 0.12 Wall
Fock build time:  0.14 s (CPU) 0.15 s (wall)
DIIS Errors:  Max 4.55E-06 RMS 1.13E-06

Current DIIS subspace size = 7
REM_GRID_RESTART_DIIS = 0

    7     -76.4221726344      1.13E-06  00000
Finding J and K together
 Job number = 22, Threshold = 1.00E-12
Integral type ranges set in mkLRange.C for JobNum: 22  <1-21|1-21>
Storing 3796.18% of integrals
Reusing in-core integrals buffer for job 22
Target Grid is being used
 CPU 0.00 s  wall 0.00 s
NTotSigB2 = 7836
Total Number of Grid Points = 8654
 CPU 0.12 s  wall 0.12 s

 Total DFTman time = 0.12 CPUs 0.12 Wall
Fock build time:  0.14 s (CPU) 0.15 s (wall)
DIIS Errors:  Max 1.41E-06 RMS 2.87E-07

Current DIIS subspace size = 8
REM_GRID_RESTART_DIIS = 0

    8     -76.4221726344      2.87E-07  00000
Finding J and K together
 Job number = 22, Threshold = 1.00E-12
Integral type ranges set in mkLRange.C for JobNum: 22  <1-21|1-21>
Storing 3796.18% of integrals
Reusing in-core integrals buffer for job 22
Target Grid is being used
 CPU 0.00 s  wall 0.00 s
NTotSigB2 = 7836
Total Number of Grid Points = 8654
 CPU 0.11 s  wall 0.11 s

 Total DFTman time = 0.11 CPUs 0.11 Wall
Fock build time:  0.14 s (CPU) 0.14 s (wall)
DIIS Errors:  Max 1.64E-07 RMS 2.85E-08

Current DIIS subspace size = 9
REM_GRID_RESTART_DIIS = 0

    9     -76.4221726344      2.85E-08  00000
Finding J and K together
 Job number = 22, Threshold = 1.00E-12
Integral type ranges set in mkLRange.C for JobNum: 22  <1-21|1-21>
Storing 3796.18% of integrals
Reusing in-core integrals buffer for job 22
Target Grid is being used
 CPU 0.00 s  wall 0.00 s
NTotSigB2 = 7836
Total Number of Grid Points = 8654
 CPU 0.10 s  wall 0.10 s

 Total DFTman time = 0.10 CPUs 0.10 Wall
Fock build time:  0.13 s (CPU) 0.13 s (wall)
DIIS Errors:  Max 8.71E-09 RMS 1.42E-09

Current DIIS subspace size = 10
REM_GRID_RESTART_DIIS = 0

   10     -76.4221726344      1.42E-09  00000 Convergence criterion met
 ---------------------------------------
 SCF time:  CPU 1.45 s  wall 1.49 s
 Eold:   -0.0112983 E_qmmm:  -76.433470906992 
Here are the indices for MO re-ordering:
0 1 2 3 4 5 6 7 8 9 10 11 12 13 15 18 14 16 17 19 20 21 22 Here are the indices for MO re-ordering:
0 1 2 3 4 5 6 7 8 9 10 11 12 13 15 18 14 16 17 19 20 21 22  SCF   energy in the final basis set = -76.4334709070
 Total energy in the final basis set = -76.4334709070
Symmetry turned off temporarily
 Analysis of SCF Wavefunction

 --------------------------------------------------------------
                    Orbital Energies (a.u.)
 --------------------------------------------------------------

 Alpha MOs
 -- Occupied --
-19.171  -1.020  -0.536  -0.398  -0.319
 -- Virtual --
  0.023   0.113   0.155   0.156   0.198   0.241   0.931   1.027
  1.114   1.114   1.151   1.251   1.708   1.725   1.757   2.258
  2.617   3.672
 --------------------------------------------------------------

          Ground-State Mulliken Net Atomic Charges

     Atom                 Charge (a.u.)
  ----------------------------------------
      1 O                    -0.919000
      2 H                     0.462084
      3 H                     0.456916
  ----------------------------------------
  Sum of atomic charges =     0.000000

 -----------------------------------------------------------------
                    Cartesian Multipole Moments
 -----------------------------------------------------------------
    Charge (ESU x 10^10)
                 0.0000
    Dipole Moment (Debye)
         X      -1.9652      Y      -0.0346      Z       1.1784
       Tot       2.2917
    Quadrupole Moments (Debye-Ang)
        XX     -10.9703     XY       0.5125     YY      -5.1553
        XZ      -0.7770     YZ      -2.0507     ZZ      -4.9135
    Octapole Moments (Debye-Ang^2)
       XXX     -30.7505    XXY       6.0540    XYY      -6.5969
       YYY      10.5242    XXZ      -8.9330    XYZ      -1.3984
       YYZ      -1.8024    XZZ      -8.0764    YZZ       0.7802
       ZZZ     -15.1574
    Hexadecapole Moments (Debye-Ang^3)
      XXXX     -74.1718   XXXY      18.9033   XXYY     -14.1468
      XYYY      13.0904   YYYY     -21.4217   XXXZ     -26.5195
      XXYZ       3.6115   XYYZ      -3.2406   YYYZ       5.6934
      XXZZ     -19.5859   XYZZ       2.4354   YYZZ      -4.2381
      XZZZ     -20.2765   YZZZ       6.1500   ZZZZ     -35.1533
 -----------------------------------------------------------------
 Calculating analytic gradient of the SCF energy
 Job number = 111, Threshold = 1.00E-12
Integral type ranges set in mkLRange.C for JobNum: 11  <1-21|22-22>
Total number of integrals generated =             927
Finding J and K together
 ML is being used
 Job number = 122, Threshold = 1.00E-12
Integral type ranges set in mkLRange.C for JobNum: 22  <1-21|1-21>
Total number of integrals generated =           50238
 Gradient of Coulomb and Exchange Energy
            1           2           3
    1  -2.5221423   0.7659793   1.7561630
    2  -0.0792894   1.7951202  -1.7158307
    3   1.5339544  -1.5447536   0.0107991
 CPU 0.00 s  wall 0.00 s
NTotSigB2 = 7836
Total Number of Grid Points = 8654
 CPU 0.29 s  wall 0.29 s

 Total DFTman time = 0.29 CPUs 0.29 Wall
 Gradient of SCF Energy
            1           2           3
    1   0.0153180  -0.0019177  -0.0134003
    2  -0.0122879   0.0028855   0.0094024
    3  -0.0015083  -0.0006317   0.0021400
 Max gradient component =       1.532E-02
 RMS gradient           =       8.647E-03
 Gradient time:  CPU 0.48 s  wall 0.48 s
 ------------------------------------------------------------------------------
                     drvman        : Timing summary (seconds)
 ------------------------------------------------------------------------------
     job step          cpu (% of tot)      sys (% of tot)     wall (% of tot)
 ------------------------------------------------------------------------------
 ------------------------------------------------------------------------------
   Grand Totals     0.4766E+00          0.4000E-05          0.4810E+00
 ------------------------------------------------------------------------------
 ----------------------------------------------------
       Standard Nuclear Orientation (Angstroms)
    I     Atom         X            Y            Z
 ----------------------------------------------------
    1      O      -0.828842     1.123696     0.939951
    2      H      -1.666055     1.348013     1.352327
    3      H      -0.659998     1.857613     0.342992
    4      O       1.210177    -0.680560     0.840037
    5      H       0.889239    -1.364576     1.445734
    6      H       0.487878    -0.007095     0.855200
 ----------------------------------------------------
 Nuclear Repulsion Energy =     0.0000000000 hartrees
 There are        5 alpha and        5 beta electrons
 Geometry Optimization Parameters
   NAtoms,    NIC,     NZ,  NCons,   NDum,   NFix, NCnnct, MaxDiis
        6      25       0       0       0       0       0       0

 Cartesian Hessian Update
 Hessian Updated using BFGS Update


** GEOMETRY OPTIMIZATION IN DELOCALIZED INTERNAL COORDINATES **
   Searching for a Minimum

   Optimization Cycle:  11

                       Coordinates (Angstroms)
     ATOM              X           Y           Z
      1  O        -0.828842    1.123696    0.939951
      2  H        -1.666055    1.348013    1.352327
      3  H        -0.659998    1.857613    0.342992
      4  O         1.210177   -0.680560    0.840037
      5  H         0.889239   -1.364576    1.445734
      6  H         0.487878   -0.007095    0.855200
   Point Group: c1    Number of degrees of freedom:    12


   Energy is    -76.433470907

 GETINT wrote B to file, NVib is           12
 Hessian Updated using BFGS Update

 12 Hessian modes will be used to form the next step
  Hessian Eigenvalues:
     0.001853    0.003698    0.007386    0.017167    0.120327    0.184577
     0.200722    0.266612    0.495193    0.542489    0.545226    0.555367

 Minimum Search - Taking Simple RFO Step
 Searching for Lamda that Minimizes Along All modes
 Value Taken    Lamda =   0.00000000
 Step Taken.  Stepsize is  0.004087

                             Maximum     Tolerance    Cnvgd?
         Gradient           0.000185      0.000300     YES
         Displacement       0.003103      0.001200      NO
         Energy change     -0.000001      0.000001     YES


                       Distance Matrix (Angstroms)
             O (  1)   H (  2)   H (  3)   O (  4)   H (  5)
   H (  2)  0.959842
   H (  3)  0.960991  1.513473
   O (  4)  2.724504  3.556720  3.191697
   H (  5)  3.065798  3.727786  3.741481  0.968373
   H (  6)  1.737707  2.592852  2.248803  0.987674  1.533811

 Final energy is   -76.433470906992000     


 ******************************
 **  OPTIMIZATION CONVERGED  **
 ******************************

Z-matrix Print:
$molecule
10 1
O 
H  1 0.959842
H  1 0.960991 2 103.984069
H  1 1.737707 2 146.507595 3 -177.788132 0
O  4 0.987674 1 176.976374 2 -5.609621 0
H  5 0.968373 4 103.277601 1 0.916682 0
$end

 JobOver = TRUE
 Total job time:  25.80s(wall), 21.95s(cpu) 
 Thu May  1 14:45:40 2014

        *************************************************************
        *                                                           *
        *  Thank you very much for using Q-Chem.  Have a nice day.  *
        *                                                           *
        *************************************************************


*** MISSION COMPLETED -- STARFLEET OUT ***

