Jobname.Temp
SP        RHF                           6-31G(d)            
Number of atoms                            I               13
Charge                                     I                0
Multiplicity                               I                1
Number of electrons                        I               40
Number of alpha electrons                  I               20
Number of beta electrons                   I               20
Atomic numbers                             I   N=          13
           6           6           6           6           8           1
           1           1           1           1           1           1
           1
Current cartesian coordinates              R   N=          39
  3.53574189E+00 -9.70428593E-01 -6.58141099E-17  9.86672208E-01  2.96783786E-01
 -5.06570382E-17 -1.29014377E+00 -1.44796548E+00  1.26537364E-16 -3.77698222E+00
 -1.86262619E-02  1.30340642E-16  7.99266793E-01  2.61370429E+00 -1.76056403E-16
  3.73031722E+00 -2.13482162E+00 -1.69371674E+00  3.73031722E+00 -2.13482162E+00
  1.69371674E+00  5.02668978E+00  4.62116172E-01 -1.98347412E-16 -1.18264425E+00
 -2.64909390E+00  1.68121091E+00 -1.18264425E+00 -2.64909390E+00 -1.68121091E+00
 -3.94019626E+00  1.18904807E+00  1.67198678E+00 -5.36750622E+00 -1.34059631E+00
  2.59991494E-16 -3.94019626E+00  1.18904807E+00 -1.67198678E+00
Nuclear charges                            R   N=          13
  6.00000000E+00  6.00000000E+00  6.00000000E+00  6.00000000E+00  8.00000000E+00
  1.00000000E+00  1.00000000E+00  1.00000000E+00  1.00000000E+00  1.00000000E+00
  1.00000000E+00  1.00000000E+00  1.00000000E+00
Number of basis functions                  I               91
Number of contracted shells                I               36
Highest angular momentum                   I                2
Largest degree of contraction              I                6
Number of primitive shells                 I               87
Shell types                                I   N=          36
           0          -1          -1           2           0          -1
          -1           2           0          -1          -1           2
           0          -1          -1           2           0          -1
          -1           2           0           0           0           0
           0           0           0           0           0           0
           0           0           0           0           0           0
Number of primitives per shell             I   N=          36
           6           3           1           1           6           3
           1           1           6           3           1           1
           6           3           1           1           6           3
           1           1           3           1           3           1
           3           1           3           1           3           1
           3           1           3           1           3           1
Shell to atom map                          I   N=          36
           1           1           1           1           2           2
           2           2           3           3           3           3
           4           4           4           4           5           5
           5           5           6           6           7           7
           8           8           9           9          10          10
          11          11          12          12          13          13
Primitive exponents                        R   N=          87
  3.04752490E+03  4.57369510E+02  1.03948690E+02  2.92101550E+01  9.28666300E+00
  3.16392700E+00  7.86827240E+00  1.88128850E+00  5.44249300E-01  1.68714400E-01
  8.00000000E-01  3.04752490E+03  4.57369510E+02  1.03948690E+02  2.92101550E+01
  9.28666300E+00  3.16392700E+00  7.86827240E+00  1.88128850E+00  5.44249300E-01
  1.68714400E-01  8.00000000E-01  3.04752490E+03  4.57369510E+02  1.03948690E+02
  2.92101550E+01  9.28666300E+00  3.16392700E+00  7.86827240E+00  1.88128850E+00
  5.44249300E-01  1.68714400E-01  8.00000000E-01  3.04752490E+03  4.57369510E+02
  1.03948690E+02  2.92101550E+01  9.28666300E+00  3.16392700E+00  7.86827240E+00
  1.88128850E+00  5.44249300E-01  1.68714400E-01  8.00000000E-01  5.48467170E+03
  8.25234950E+02  1.88046960E+02  5.29645000E+01  1.68975700E+01  5.79963530E+00
  1.55396160E+01  3.59993360E+00  1.01376180E+00  2.70005800E-01  8.00000000E-01
  1.87311370E+01  2.82539370E+00  6.40121700E-01  1.61277800E-01  1.87311370E+01
  2.82539370E+00  6.40121700E-01  1.61277800E-01  1.87311370E+01  2.82539370E+00
  6.40121700E-01  1.61277800E-01  1.87311370E+01  2.82539370E+00  6.40121700E-01
  1.61277800E-01  1.87311370E+01  2.82539370E+00  6.40121700E-01  1.61277800E-01
  1.87311370E+01  2.82539370E+00  6.40121700E-01  1.61277800E-01  1.87311370E+01
  2.82539370E+00  6.40121700E-01  1.61277800E-01  1.87311370E+01  2.82539370E+00
  6.40121700E-01  1.61277800E-01
Contraction coefficients                   R   N=          87
  5.36334382E-01  9.89450608E-01  1.59728223E+00  2.07918706E+00  1.77417425E+00
  6.12579826E-01 -3.99556352E-01 -1.84155239E-01  5.16390379E-01  1.87617872E-01
  1.11382493E+00  5.36334382E-01  9.89450608E-01  1.59728223E+00  2.07918706E+00
  1.77417425E+00  6.12579826E-01 -3.99556352E-01 -1.84155239E-01  5.16390379E-01
  1.87617872E-01  1.11382493E+00  5.36334382E-01  9.89450608E-01  1.59728223E+00
  2.07918706E+00  1.77417425E+00  6.12579826E-01 -3.99556352E-01 -1.84155239E-01
  5.16390379E-01  1.87617872E-01  1.11382493E+00  5.36334382E-01  9.89450608E-01
  1.59728223E+00  2.07918706E+00  1.77417425E+00  6.12579826E-01 -3.99556352E-01
 -1.84155239E-01  5.16390379E-01  1.87617872E-01  1.11382493E+00  8.31735209E-01
  1.53080748E+00  2.47714909E+00  3.25628025E+00  2.79289363E+00  9.54937696E-01
 -6.17933698E-01 -2.75721009E-01  8.14207643E-01  2.66956139E-01  1.11382493E+00
  2.14935418E-01  3.64571127E-01  4.15051428E-01  1.81380684E-01  2.14935418E-01
  3.64571127E-01  4.15051428E-01  1.81380684E-01  2.14935418E-01  3.64571127E-01
  4.15051428E-01  1.81380684E-01  2.14935418E-01  3.64571127E-01  4.15051428E-01
  1.81380684E-01  2.14935418E-01  3.64571127E-01  4.15051428E-01  1.81380684E-01
  2.14935418E-01  3.64571127E-01  4.15051428E-01  1.81380684E-01  2.14935418E-01
  3.64571127E-01  4.15051428E-01  1.81380684E-01  2.14935418E-01  3.64571127E-01
  4.15051428E-01  1.81380684E-01
P(S=P) Contraction coefficients            R   N=          87
  0.00000000E+00  0.00000000E+00  0.00000000E+00  0.00000000E+00  0.00000000E+00
  0.00000000E+00  1.29608272E+00  9.93753628E-01  4.95952714E-01  1.54127551E-01
  0.00000000E+00  0.00000000E+00  0.00000000E+00  0.00000000E+00  0.00000000E+00
  0.00000000E+00  0.00000000E+00  1.29608272E+00  9.93753628E-01  4.95952714E-01
  1.54127551E-01  0.00000000E+00  0.00000000E+00  0.00000000E+00  0.00000000E+00
  0.00000000E+00  0.00000000E+00  0.00000000E+00  1.29608272E+00  9.93753628E-01
  4.95952714E-01  1.54127551E-01  0.00000000E+00  0.00000000E+00  0.00000000E+00
  0.00000000E+00  0.00000000E+00  0.00000000E+00  0.00000000E+00  1.29608272E+00
  9.93753628E-01  4.95952714E-01  1.54127551E-01  0.00000000E+00  0.00000000E+00
  0.00000000E+00  0.00000000E+00  0.00000000E+00  0.00000000E+00  0.00000000E+00
  3.11694559E+00  2.40143725E+00  1.05436051E+00  2.77431937E-01  0.00000000E+00
  0.00000000E+00  0.00000000E+00  0.00000000E+00  0.00000000E+00  0.00000000E+00
  0.00000000E+00  0.00000000E+00  0.00000000E+00  0.00000000E+00  0.00000000E+00
  0.00000000E+00  0.00000000E+00  0.00000000E+00  0.00000000E+00  0.00000000E+00
  0.00000000E+00  0.00000000E+00  0.00000000E+00  0.00000000E+00  0.00000000E+00
  0.00000000E+00  0.00000000E+00  0.00000000E+00  0.00000000E+00  0.00000000E+00
  0.00000000E+00  0.00000000E+00  0.00000000E+00  0.00000000E+00  0.00000000E+00
  0.00000000E+00  0.00000000E+00
Coordinates of each shell                  R   N=         108
  3.53574189E+00 -9.70428593E-01 -6.58141099E-17  3.53574189E+00 -9.70428593E-01
 -6.58141099E-17  3.53574189E+00 -9.70428593E-01 -6.58141099E-17  3.53574189E+00
 -9.70428593E-01 -6.58141099E-17  9.86672208E-01  2.96783786E-01 -5.06570382E-17
  9.86672208E-01  2.96783786E-01 -5.06570382E-17  9.86672208E-01  2.96783786E-01
 -5.06570382E-17  9.86672208E-01  2.96783786E-01 -5.06570382E-17 -1.29014377E+00
 -1.44796548E+00  1.26537364E-16 -1.29014377E+00 -1.44796548E+00  1.26537364E-16
 -1.29014377E+00 -1.44796548E+00  1.26537364E-16 -1.29014377E+00 -1.44796548E+00
  1.26537364E-16 -3.77698222E+00 -1.86262619E-02  1.30340642E-16 -3.77698222E+00
 -1.86262619E-02  1.30340642E-16 -3.77698222E+00 -1.86262619E-02  1.30340642E-16
 -3.77698222E+00 -1.86262619E-02  1.30340642E-16  7.99266793E-01  2.61370429E+00
 -1.76056403E-16  7.99266793E-01  2.61370429E+00 -1.76056403E-16  7.99266793E-01
  2.61370429E+00 -1.76056403E-16  7.99266793E-01  2.61370429E+00 -1.76056403E-16
  3.73031722E+00 -2.13482162E+00 -1.69371674E+00  3.73031722E+00 -2.13482162E+00
 -1.69371674E+00  3.73031722E+00 -2.13482162E+00  1.69371674E+00  3.73031722E+00
 -2.13482162E+00  1.69371674E+00  5.02668978E+00  4.62116172E-01 -1.98347412E-16
  5.02668978E+00  4.62116172E-01 -1.98347412E-16 -1.18264425E+00 -2.64909390E+00
  1.68121091E+00 -1.18264425E+00 -2.64909390E+00  1.68121091E+00 -1.18264425E+00
 -2.64909390E+00 -1.68121091E+00 -1.18264425E+00 -2.64909390E+00 -1.68121091E+00
 -3.94019626E+00  1.18904807E+00  1.67198678E+00 -3.94019626E+00  1.18904807E+00
  1.67198678E+00 -5.36750622E+00 -1.34059631E+00  2.59991494E-16 -5.36750622E+00
 -1.34059631E+00  2.59991494E-16 -3.94019626E+00  1.18904807E+00 -1.67198678E+00
 -3.94019626E+00  1.18904807E+00 -1.67198678E+00
SCF Energy                                 R     -2.309943726503582E+02
Alpha MO coefficients                      R   N=        8281
 -2.34414743E-06  8.23760288E-06  9.68459842E-06 -2.41937908E-05  1.15459358E-15
 -7.86051164E-05  1.33495369E-04  1.29443096E-05 -1.62752299E-15  8.15423832E-06
 -4.68180808E-05 -2.31404297E-05  3.25167634E-05 -2.53387789E-16 -7.31323270E-16
 -6.61548583E-06  4.55671219E-04  9.90071516E-06 -1.94383061E-05  5.47498380E-16
 -1.24280393E-04  1.76343453E-05 -6.43567681E-04  7.24477444E-16 -6.01924005E-05
 -7.26773166E-04 -4.58797656E-05  6.35321255E-05  9.75968514E-16  1.50022240E-17
 -2.66555707E-06  7.11060586E-08 -6.04886551E-06 -2.50145715E-05  1.35392287E-16
 -7.88440030E-05 -1.77281098E-04  4.99538512E-06  2.76452580E-15  2.69911718E-05
 -5.08867862E-05 -2.32726969E-05 -2.18914723E-05 -8.91549611E-16 -1.77750817E-16
  2.66056035E-06  1.92581290E-05  9.66078848E-06  1.57607486E-05 -4.35781511E-17
 -6.13131019E-05 -9.88883488E-05 -4.79077656E-06 -9.95243384E-16 -1.29321602E-06
 -9.48237156E-06  1.80254993E-06  8.91182690E-06 -2.75780375E-16 -4.86266368E-16
  9.94700268E-01  2.09171342E-02  1.10388967E-04 -1.47926207E-03  2.13967299E-16
  4.52676245E-03 -9.28794603E-07  3.50820415E-05 -8.19154552E-16 -3.87123589E-03
 -3.63352890E-03 -4.17674349E-03 -2.61885811E-05  4.80044064E-16 -2.71448649E-17
  9.23642860E-06 -2.80519906E-05  9.23642860E-06 -2.80519906E-05  4.15720539E-06
 -6.92078859E-05  8.37151356E-06 -2.11721831E-05  8.37151356E-06 -2.11721831E-05
  2.37162323E-05 -3.27353931E-05 -3.58994694E-06 -4.76549549E-05  2.37162323E-05
 -3.27353931E-05  3.21549683E-03  2.43175299E-04  5.22840566E-05 -1.13593636E-04
 -6.42557076E-16  3.15021292E-03 -1.76907707E-03  3.00653275E-04 -8.08902912E-16
 -3.91164186E-04 -3.12790716E-04 -4.00311309E-05  2.48580356E-04  5.81343276E-16
 -3.12454996E-16  9.95850166E-01  2.66030849E-02  1.00515085E-05  5.43862413E-04
  7.73188615E-16 -9.22377642E-03 -3.63894598E-04  4.38735787E-03 -5.59116284E-16
 -1.62293928E-03 -6.56675261E-04 -2.25265000E-03 -9.67521702E-05 -2.96490331E-16
 -5.58959159E-16  3.29719428E-03  2.88910243E-04 -4.75138048E-05 -1.15638065E-04
 -2.18646309E-16  2.87379614E-03  2.06558124E-03  6.46200922E-04 -1.31272489E-15
 -3.32899786E-04 -3.76612398E-04 -3.82922447E-05 -2.13834948E-04  5.77757785E-16
  2.17079086E-16 -4.12614669E-05 -1.05877446E-04 -3.98545517E-05 -3.38607178E-06
 -3.91966190E-16  3.79064665E-04  1.93475812E-04 -3.19857457E-04  9.53772651E-16
  2.32857450E-05  4.54136272E-05 -4.44695940E-05 -1.45381500E-05 -4.30905989E-16
  1.42802979E-16 -2.46182428E-04  6.94419075E-04  2.52334080E-05 -2.53146193E-04
  7.54798683E-16 -3.40041935E-03 -1.68862370E-04  1.84420898E-03  2.38183124E-16
  2.28106568E-04 -9.34445928E-05  5.03054060E-04  3.87303851E-05 -9.60188079E-17
 -7.94201385E-17 -1.36072995E-04  2.03281698E-04 -1.36072995E-04  2.03281698E-04
 -6.07877547E-05  1.58855598E-04 -1.23639679E-04  2.17939316E-04 -1.23639679E-04
  2.17939316E-04 -3.32218270E-05  9.21902503E-05 -3.06021057E-05  6.39298887E-05
 -3.32218270E-05  9.21902503E-05 -2.17584926E-03 -3.77432088E-04  7.68310167E-05
  6.92148900E-05 -1.22929045E-15  1.79644483E-03 -5.86990972E-04  9.26598935E-05
  1.69653245E-15 -4.53575672E-05 -1.73677372E-05 -1.15227927E-04 -2.27443825E-05
  2.26001943E-16 -3.63512448E-16 -3.57701875E-03  1.36555434E-05 -2.36418075E-06
 -6.80049424E-05 -9.26938647E-16  4.15388646E-03 -3.24065688E-03 -8.94608717E-04
 -3.27645897E-16 -3.53397624E-04 -3.32690916E-04 -1.40047037E-04 -2.20448991E-04
  1.93514841E-16 -3.70521010E-16  9.95745200E-01  2.89061667E-02  1.52743781E-04
  4.14954156E-05 -7.36434161E-16 -1.85362804E-02 -2.81879086E-04 -1.50595460E-03
  1.99628725E-15 -1.63139645E-03 -1.72018014E-03 -1.58013665E-03 -1.89828047E-05
  7.26720387E-16  2.25922745E-16  1.34019119E-02  4.30214623E-04  1.20200907E-04
 -1.33302857E-05 -2.78423118E-16  4.20786514E-03  1.66273509E-03 -1.00532603E-03
 -1.51246203E-15 -3.75349211E-04 -2.59475398E-04 -9.68221672E-05  1.75465565E-04
 -3.08956962E-16 -1.53333292E-16  7.47359382E-06 -3.54952909E-05 -7.23230749E-06
  2.34713302E-05  6.90277642E-16 -3.64471964E-04  5.35249719E-04  5.31703689E-05
 -2.11317780E-17  5.82691268E-05  8.23036751E-05 -8.91996805E-05 -9.19208665E-05
  6.47085738E-16 -3.85627843E-16 -6.56129338E-05 -2.93263812E-04 -6.56129338E-05
 -2.93263812E-04 -4.98734979E-05  1.70613393E-04  2.46216099E-04  2.69830233E-03
  2.46216099E-04  2.69830233E-03 -1.58090593E-04  5.48329681E-05 -1.38803885E-04
 -1.67677274E-04 -1.58090593E-04  5.48329681E-05  9.95710884E-01  2.88496219E-02
 -2.28346058E-04 -9.80631481E-05  1.17318087E-16 -1.60370673E-02  1.16934818E-03
 -4.93361976E-04 -1.46029835E-15 -1.88944338E-03 -1.90359708E-03 -1.85682710E-03
  3.82498603E-05 -5.19434485E-17  7.85305421E-19 -3.51649920E-03  4.23341598E-05
 -3.75814799E-05 -8.45930776E-05  2.91479284E-16  3.44479682E-03  2.83669139E-03
 -4.11255956E-04 -3.38237196E-16 -4.26850695E-04 -2.64997546E-04 -1.21506280E-04
  1.45579697E-04 -3.26070203E-16  4.38125674E-16  2.06075264E-03 -2.23473054E-04
 -1.14955262E-04  6.65519028E-05 -6.67184983E-16  1.16895918E-03  1.03164257E-03
 -1.47762166E-04  4.72533931E-15 -5.36975194E-05 -4.31355166E-05 -9.60416853E-05
  6.09339134E-05 -1.00200610E-16 -7.63473729E-16  1.62077097E-05 -1.41735341E-04
 -1.51423988E-05 -4.89778341E-06  5.75304778E-18  8.56515639E-04  4.63096022E-04
 -8.53938924E-05 -2.70204865E-15  4.27049010E-06 -3.74164592E-05 -5.58340147E-05
 -1.16286526E-05 -4.47648442E-16  1.29050552E-16 -7.70582828E-06 -1.09176231E-04
 -2.60559462E-05  2.81030550E-05 -1.25871637E-16  3.93416214E-05 -3.42216503E-04
 -1.59688768E-04 -4.70313350E-16 -9.07478506E-06  7.18326261E-05 -1.33339932E-04
  3.67542384E-05 -3.80550727E-16  2.15790537E-16  1.53281996E-04  2.62280651E-03
  1.53281996E-04  2.62280651E-03  1.92883254E-04  2.43391564E-03 -8.87745915E-05
 -2.86185275E-04 -8.87745915E-05 -2.86185275E-04 -3.82951330E-05 -2.76479807E-05
 -2.84369298E-05  1.13857529E-04 -3.82951330E-05 -2.76479807E-05 -4.94914543E-05
 -1.53643214E-04 -1.00982363E-05  3.10681971E-05 -8.73568795E-16  1.11952779E-03
 -4.97657019E-04  1.42342294E-04 -8.90129984E-16 -4.58832118E-06 -3.70052054E-05
 -4.26031624E-05 -2.90426262E-05 -6.00376953E-17  8.13625968E-17  6.83391590E-05
 -1.12076428E-04  1.25598780E-04 -7.71775694E-05 -2.42319186E-16 -1.12501746E-03
 -6.80727897E-04 -7.10699485E-05  1.51831672E-15  2.11007038E-05 -8.67498179E-06
 -3.88952190E-05  3.14885682E-05 -8.36190926E-18 -2.92463536E-17 -1.36972761E-02
 -2.92443796E-04  1.66902202E-05 -8.05520152E-06  9.29107052E-16  3.93467494E-03
 -1.74459520E-03  9.35623914E-04 -2.84538018E-15 -4.04194531E-04 -2.00186016E-04
 -6.47460073E-05  1.81849345E-04  4.19260980E-16  3.45250629E-18  9.95663209E-01
  2.84599952E-02  1.83357973E-04 -1.07250306E-04 -6.20597324E-16 -1.53411558E-02
 -9.62900637E-04  2.77373639E-04  2.24126273E-15 -1.82919294E-03 -1.79868561E-03
 -1.80262719E-03  2.92251391E-05  5.61779356E-16  9.29920203E-16 -5.70630075E-05
 -2.45607860E-04  6.16589864E-05  5.35948639E-05  5.65167487E-16  1.09169881E-03
 -5.10223100E-05 -3.96653571E-04 -9.24824453E-16 -1.54277672E-04 -1.17487914E-04
 -2.45883759E-04  1.05785357E-05  6.83209999E-16 -3.46944695E-18 -5.24154358E-05
 -4.99271534E-05 -5.24154358E-05 -4.99271534E-05 -3.30877684E-05  4.12423533E-05
 -1.39937548E-04  2.96440869E-05 -1.39937548E-04  2.96440869E-05  1.88612398E-04
  2.56409601E-03  1.17856896E-04  2.38943454E-03  1.88612398E-04  2.56409601E-03
 -1.85726320E-02  3.52890662E-02 -2.15257539E-02  1.73167300E-02 -2.54123437E-16
  6.66575324E-03  6.20652144E-03  7.62030258E-03  2.09749752E-15  4.81577127E-03
  2.61587099E-03 -4.15883795E-04 -4.62228075E-03 -2.55058561E-17 -2.24646690E-16
 -1.13650326E-01  2.15516288E-01 -1.32557330E-02  1.63333923E-01 -4.78133158E-17
  7.70655244E-02  2.64988086E-03 -3.75794303E-02 -5.78096598E-16 -1.48145914E-02
  2.96514572E-02 -1.63993497E-02 -4.17807860E-03  1.10873225E-16  9.90825260E-17
 -1.87001039E-02  3.46910174E-02  1.67547113E-02  2.07682722E-02  2.71321594E-17
  1.00161268E-02 -1.14836627E-02  5.61530484E-03  1.72431514E-15  3.02617571E-03
  3.99817259E-03 -5.21767662E-04  4.71379430E-03  3.30247982E-16  1.73604485E-16
 -6.06366798E-03  1.17831502E-02  7.73311043E-03 -1.96017646E-04  1.12323345E-16
 -2.88176913E-03  6.80030145E-04  3.72342033E-03 -2.83800761E-15  1.84187232E-03
  3.27604583E-04  1.92856847E-04 -6.80394505E-05  3.99528501E-17 -5.83300769E-16
 -1.93932225E-01  4.26443649E-01  1.06375896E-02 -1.31057237E-01  1.66723189E-16
  4.06684297E-01  4.59540962E-03 -5.67367829E-02  2.03721588E-16 -3.48927406E-03
  1.76381270E-02 -3.02474512E-03 -1.89752130E-03  3.89499630E-17 -6.21383370E-18
  6.21737455E-03  1.14265340E-03  6.21737455E-03  1.14265340E-03  8.72150155E-03
 -1.27690373E-03  6.25651973E-03  2.90250467E-04  6.25651973E-03  2.90250467E-04
  3.28088704E-03  1.81256618E-03  1.78719493E-03  1.65724859E-03  3.28088704E-03
  1.81256618E-03 -6.96324549E-02  1.30363637E-01 -3.75593855E-02  2.23129845E-05
  3.70580303E-16  1.07780160E-01 -2.39753736E-03 -1.53511182E-03  1.15792792E-15
  5.75807033E-03  1.18148996E-03  3.04879802E-03 -1.07152239E-03 -9.10729825E-18
  2.06811564E-17 -6.67030520E-02  1.37001377E-01 -2.81436233E-02 -1.43926053E-01
  6.10622664E-16  8.94135438E-02  1.14474922E-03 -3.63001651E-02 -1.57339419E-15
  1.72389400E-02 -5.84117957E-03 -4.91792787E-03  5.87074956E-03  1.65882932E-16
  3.17671237E-17 -1.45416959E-01  2.70092453E-01  2.56412538E-03  2.70417613E-02
  1.32229297E-15  2.38877547E-01  2.19040625E-03  3.76814978E-03  3.43822193E-15
  8.70407446E-03  4.07513657E-03  5.22794002E-03 -1.07775211E-03  1.94289029E-16
 -1.10913882E-16 -9.71326689E-02  1.79960119E-01  5.17798817E-02 -2.91848700E-02
 -4.28476699E-16  1.47740447E-01  2.82065186E-03 -6.23895336E-03  1.24900090E-16
  9.12485572E-03  3.78740215E-03  1.76483945E-03 -5.00283335E-03 -5.72458747E-17
 -3.82072846E-16  5.74109674E-02 -1.30597959E-01 -1.18402882E-02 -8.59519934E-03
 -5.04154010E-16 -1.34551956E-01 -4.65014482E-03 -5.88379567E-03  9.90960786E-16
 -1.47389541E-03 -8.40068081E-04  1.05351948E-04  1.19055361E-03  1.82362805E-16
 -1.07173385E-16  4.36485077E-02  8.82553307E-03  4.36485077E-02  8.82553307E-03
  3.25764513E-02  2.44537100E-03  8.56371729E-02  1.50797248E-02  8.56371729E-02
  1.50797248E-02  5.16607952E-02  7.48338625E-03  5.19840727E-02  6.69741984E-03
  5.16607952E-02  7.48338625E-03 -1.58321801E-01  2.93081859E-01 -3.06313978E-02
  1.10480326E-02 -1.63280847E-16  2.95279197E-01 -6.82354294E-03  1.83507012E-03
 -3.42607887E-16  7.39254073E-03  6.22013976E-03  8.07576986E-03 -4.85450634E-05
  9.00972005E-17 -1.56274191E-16 -5.16714411E-02  1.06146234E-01  1.40459626E-01
 -7.70537830E-02 -1.98192157E-16  7.54201073E-02  1.22780048E-02 -3.10254879E-02
 -2.79290480E-16  1.11444001E-02 -4.23375852E-03 -3.88013272E-03 -1.03184518E-02
  1.09179159E-16  1.32923186E-16  5.46243730E-02 -9.96733427E-02  7.48052499E-02
 -1.72133590E-02  2.24646690E-16 -1.12095183E-01  7.81350447E-03 -5.98433249E-03
  8.67361738E-17 -1.95905066E-03 -2.43391230E-03 -1.69917044E-03  6.98591531E-03
  1.74773390E-16  1.11157828E-16  9.08499724E-02 -1.68500866E-01 -2.27253884E-02
  1.39331904E-02  9.85322934E-16 -1.54711387E-01 -1.83596436E-03  4.42874634E-03
 -1.36002321E-15 -5.19598932E-03 -4.16874289E-03 -3.26002095E-03  1.21423944E-03
  7.22078647E-17 -1.86482774E-16  3.07837443E-02 -7.19732189E-02  4.18479090E-02
 -1.30530547E-02 -3.69929781E-16 -7.06013870E-02  1.94549053E-02 -9.17526611E-03
 -6.31005664E-17 -1.16753569E-03 -3.93847006E-04 -7.77078438E-04 -4.50083885E-03
  6.91720986E-17 -6.67868538E-17  1.01768729E-01  2.22957051E-02  1.01768729E-01
  2.22957051E-02  9.70723232E-02  1.85064571E-02 -2.90077466E-02 -4.42049526E-03
 -2.90077466E-02 -4.42049526E-03 -5.50642583E-02 -1.29392575E-02 -5.57107056E-02
 -1.18752243E-02 -5.50642583E-02 -1.29392575E-02 -6.92685518E-02  1.26297943E-01
  5.90122097E-02 -8.13515618E-04  9.70360944E-16  1.68760398E-01  9.02562201E-03
 -6.57512698E-04 -1.77982629E-15 -2.86207899E-03  5.37284116E-03  5.76039051E-03
  4.56268650E-03 -8.26162055E-17  2.50857278E-16  5.31296226E-02 -1.10505718E-01
  1.19499415E-01  7.79126449E-02  2.01227923E-16 -9.33841048E-02  1.09507552E-02
  3.49852564E-02  4.23272528E-16 -9.11486853E-04 -2.87647508E-03  3.82092870E-03
 -1.18680885E-02 -1.56450373E-16 -2.77122075E-16  8.84127757E-02 -1.64694888E-01
 -1.43907233E-01  3.58540711E-02 -1.33617076E-15 -2.04386472E-01 -4.39321131E-02
  1.23475897E-02 -1.56125113E-16  5.40212766E-03 -3.64838526E-03 -9.21196765E-03
 -1.33478556E-02 -1.59594560E-16  9.80660865E-17 -1.36257009E-01  2.53493969E-01
 -7.86367802E-02  3.47509236E-02 -1.36349265E-15  2.88279956E-01 -2.36937873E-02
  6.68700192E-03  1.11022302E-16 -2.48604599E-03  7.27390749E-03  1.12983190E-02
  8.79715313E-03  9.58434720E-17 -1.30104261E-16 -1.94145231E-02  4.66942060E-02
  3.06106221E-02  3.69397900E-02  1.95156391E-18  4.81886992E-02  1.56079944E-02
  2.18143702E-02 -5.03069808E-17  2.89623597E-03 -2.44400709E-03  1.11174972E-03
 -3.73384851E-03  1.33573708E-16 -6.73289549E-17  5.33451857E-02  1.65172851E-02
  5.33451857E-02  1.65172851E-02  6.97568510E-02  2.57985833E-02 -7.82763482E-02
 -2.50843260E-02 -7.82763482E-02 -2.50843260E-02  1.10485413E-01  3.71628559E-02
  1.16984673E-01  3.98196041E-02  1.10485413E-01  3.71628559E-02 -3.85915172E-02
  6.94085335E-02  1.58633161E-01 -8.27512100E-02  3.60605643E-15  1.08262845E-01
  4.63354268E-02 -3.65026312E-02  4.03323208E-15 -1.08572919E-02  5.82412104E-03
  1.07272545E-02  1.23972038E-02 -9.79034562E-17 -2.87882782E-16  1.23703966E-01
 -2.71344470E-01 -3.80603157E-03 -3.87029061E-04  2.60880727E-15 -2.42919303E-01
 -3.17599649E-03  6.04951370E-02 -1.29063427E-15 -2.26026819E-03 -8.28011332E-04
  9.51368388E-03  2.70313345E-03 -1.90873792E-16  4.23380948E-17 -6.05833081E-02
  1.12066978E-01 -1.01678661E-01 -1.72856710E-01  4.28444173E-15  1.66484428E-01
 -1.55775936E-02 -7.89860699E-02  5.74193471E-15 -1.15487767E-02  1.89599555E-04
  1.66634680E-02 -1.07575385E-02 -3.68628739E-17 -1.32814766E-16  2.86753986E-02
 -5.44202211E-02  4.93292483E-02 -9.26002195E-02  1.83707216E-15 -7.01848284E-02
  2.73569065E-02 -3.40598243E-02 -7.07767178E-16  3.65390945E-03  1.17956616E-03
 -8.10153921E-03 -6.42690671E-03 -2.29850861E-16  2.39825521E-16 -7.85433687E-02
  1.82545833E-01 -7.86395156E-03  2.60315967E-01  1.70631738E-15  2.65322316E-01
 -3.97184488E-03  1.45228792E-01  1.72984457E-15  6.79992300E-03 -1.77661546E-02
  4.04205802E-03  1.84049727E-03 -2.58040117E-17 -1.62413485E-16  6.87644319E-02
  4.03546354E-02  6.87644319E-02  4.03546354E-02  6.52397733E-02  4.44989438E-02
  1.05206219E-01  5.62491249E-02  1.05206219E-01  5.62491249E-02 -5.44507784E-02
 -2.25140255E-02 -1.29869699E-02 -2.09657849E-03 -5.44507784E-02 -2.25140255E-02
  1.75756669E-02 -2.86355810E-02 -9.87625763E-02  1.97724450E-01  4.85581627E-15
 -5.44928512E-02 -3.57818778E-02  9.79231639E-02  2.65933109E-15  1.19381586E-02
  2.98941884E-04 -1.57629591E-02 -5.82216033E-03 -1.56233533E-16 -3.72287921E-16
 -1.49190233E-02  3.50014316E-02  2.82242665E-01  9.10138789E-02  4.17721413E-15
  1.81960274E-02  9.36849446E-02  1.48856528E-02  1.22211269E-15 -4.17231794E-03
  3.72158044E-03 -2.06446686E-03  5.24391513E-03  9.63584681E-17  3.55618313E-17
 -9.85509336E-03  1.46568714E-02 -1.00365756E-01 -1.95742650E-01  7.26350403E-15
  3.24314789E-02 -4.06257724E-02 -9.24531285E-02  5.29611077E-15 -5.98808013E-03
 -3.26146331E-03  1.27647840E-02 -7.60516429E-03  2.02528966E-16 -9.82449799E-16
 -3.27373952E-03  5.92019864E-03 -7.71034405E-02 -1.34500081E-01  6.03597033E-15
  1.10117847E-02 -4.02748037E-02 -6.49382929E-02  5.48172618E-16  2.79655551E-03
  4.72368476E-03 -7.38562783E-03  3.84659182E-03  6.39679282E-17  2.14021509E-16
  1.77919755E-02 -4.07207368E-02  2.95726340E-01 -8.64743733E-02  3.01077522E-15
 -7.36388989E-02  1.80157944E-01 -4.86392558E-02  1.58683830E-15  9.35480313E-05
  4.89217368E-03 -1.70180634E-03 -1.95726739E-02  4.40402922E-16 -2.20147251E-16
 -8.98069527E-02 -5.81255693E-02 -8.98069527E-02 -5.81255693E-02  2.28531387E-02
  1.39455594E-02  7.45160551E-02  4.76049578E-02  7.45160551E-02  4.76049578E-02
 -4.03857977E-02 -3.05281508E-02  8.82541954E-02  5.62188778E-02 -4.03857977E-02
 -3.05281508E-02 -3.89635156E-18 -8.34822120E-16  3.86924650E-15 -1.02836576E-15
  1.74632181E-01  5.75494513E-15 -1.15402479E-15  3.08780779E-16  8.91621103E-02
 -2.71267384E-16 -6.07654660E-16 -5.08816080E-16  1.41637461E-16 -3.07811161E-03
 -1.21461411E-02 -4.94240337E-16  3.61486557E-15 -7.82696390E-15  1.11672824E-16
  1.55784646E-01 -1.29965483E-14  3.65050871E-16  6.37218143E-15  6.72901369E-02
  1.29670580E-16 -3.17671237E-16  6.53394439E-16 -1.58618778E-16 -2.61834773E-03
  1.07845894E-03  8.22584188E-16 -4.86915196E-15  2.62441978E-15  8.34271888E-15
  3.07254832E-01  1.43158055E-14  3.92047506E-15  7.37951367E-15  1.63965699E-01
  1.92337465E-16  1.51788304E-17 -1.19533290E-15  2.72568426E-16  4.06819032E-03
 -1.89664296E-02 -4.74446871E-16 -2.96637714E-16  4.04103834E-15  6.59194921E-15
  1.87922679E-01  3.35842465E-15 -1.77635684E-15  4.96824804E-15  7.76614644E-02
 -5.46437895E-16  7.28583860E-17  5.46437895E-16 -9.62771529E-17  3.80044655E-03
  9.82094734E-03  1.08289774E-15 -1.85767200E-15 -6.72541450E-15 -4.00824122E-15
  1.35436524E-01 -4.91360425E-15 -6.06893008E-15 -2.69836237E-15  8.83882821E-02
  2.53147655E-16  5.92191227E-16 -1.34657910E-16  6.41034534E-16  8.11089739E-04
 -1.34909322E-02 -8.88921826E-02 -6.39264481E-02  8.88921826E-02  6.39264481E-02
  1.44215152E-15  9.61253646E-16  1.52849105E-01  1.03281111E-01 -1.52849105E-01
 -1.03281111E-01  8.94879137E-02  6.23367671E-02 -3.65159292E-15 -6.17908502E-15
 -8.94879137E-02 -6.23367671E-02  1.36169379E-02 -2.29711021E-02 -2.60299664E-01
 -5.51209747E-02  9.57892619E-17 -5.23026827E-02 -1.35378115E-01 -4.09186978E-02
 -1.52568930E-15  5.87122153E-03 -1.03007891E-02 -8.51819289E-04 -1.59132503E-02
  9.39461182E-17 -2.57701304E-17 -7.53980308E-03  5.22726392E-03  1.26170632E-01
 -3.01286666E-01  1.49316323E-15  7.82169108E-02  4.46849039E-02 -6.06009295E-02
  3.26995375E-15  9.27554026E-03 -7.80141356E-03  3.21447465E-03 -4.63407330E-04
 -1.34224229E-16 -1.17093835E-17  2.28848739E-02 -4.44472347E-02  1.41483516E-01
 -4.13217219E-02  5.97146031E-15 -6.88574031E-02  7.44300990E-02 -2.56174000E-02
  8.15320034E-17  3.85269348E-03 -4.84634533E-03  4.50724458E-04  5.17537174E-03
 -6.61363325E-17 -2.47943484E-16 -1.08309498E-02  1.74454988E-02 -1.32137633E-01
  7.23361014E-02  2.46157261E-15  4.56807202E-02 -4.84284303E-02  2.73184141E-02
  4.92661467E-16 -6.08174327E-03  2.39309442E-03  6.94900639E-03  8.48950528E-03
  2.43945489E-17 -1.06685494E-16 -5.06259765E-02  1.13498109E-01  5.09028152E-02
  3.55078564E-01  6.38811920E-16  2.22270327E-01  3.17854885E-02  2.08707441E-01
 -3.99745341E-16  6.26351601E-03 -2.50829645E-02  4.57059461E-03 -2.89267005E-03
 -1.06034972E-16  1.45337301E-16 -1.02974762E-02 -7.83096285E-03 -1.02974762E-02
 -7.83096285E-03 -1.49313739E-01 -8.49941143E-02 -2.23290812E-03  5.57416626E-04
 -2.23290812E-03  5.57416626E-04  4.09008819E-02  3.30789944E-02  4.38133133E-02
  3.40324844E-02  4.09008819E-02  3.30789944E-02  2.57315057E-16 -9.52010823E-16
  1.21902271E-15  1.06604992E-14  3.58408204E-01 -1.34441069E-17  1.38062305E-15
  2.51144591E-15  1.94101791E-01  4.52762827E-16 -4.65176942E-16 -1.19942576E-15
  2.47116780E-16 -1.76537945E-05 -2.75173436E-02 -5.71313559E-16 -5.49744712E-16
  1.60516132E-15 -5.46806524E-15  8.92249597E-02  1.08333481E-14 -4.71248474E-16
 -3.21823731E-15  4.34437593E-02  3.36753195E-16 -1.00245333E-15 -2.92192485E-16
  6.45100293E-16  1.08147030E-02  3.05337944E-03 -3.35126892E-16  1.90342533E-15
  2.87725573E-15  2.12937307E-15 -1.50685896E-01 -4.57186372E-15 -3.00107161E-15
  5.15212872E-16 -7.97761153E-02  3.74917111E-16  2.28116137E-16  2.27899297E-16
 -1.37476835E-16  4.01802643E-03  1.00834636E-02  6.62664368E-16 -2.65412692E-16
  4.88693287E-15  8.74994521E-15 -1.89550571E-01 -5.27355937E-15  1.31665512E-15
  6.38378239E-15 -1.01433074E-01 -1.59594560E-16  2.15105711E-16  7.64145691E-16
 -7.00503024E-16 -8.79459477E-04 -1.24319561E-02 -2.26523715E-16  6.81637906E-16