                  Welcome to Q-Chem
     A Quantum Leap Into The Future Of Chemistry

 Y. Shao, L. Fusti-Molnar, Y. Jung, J. Kussmann, C. Ochsenfeld,
 S. T. Brown, A. T. B. Gilbert, L. V. Slipchenko,S. V. Levchenko,
 D. P. O'Neill, R. A. DiStasio Jr., R. C. Lochan, T. Wang,
 G. J. O. Beran, N. A. Besley, J. M. Herbert, C. Y. Lin,
 T. Van Voorhis, S. H. Chien, A. Sodt, R. P. Steele, 
 V. A. Rassolov, P. E. Maslen, P. P. Korambath, R. D. Adamson,
 B. Austin, J. Baker, E. F. C. Byrd, H. Dachsel, R. J. Doerksen,
 A. Dreuw, B. D. Dunietz, A. D. Dutoi, T. R. Furlani,
 S. R. Gwaltney, A. Heyden, S. Hirata, C.-P. Hsu, G. Kedziora,
 R. Z. Khaliullin, P. Klunzinger, A. M. Lee, M. S. Lee, W. Liang,
 I. Lotan, N. Nair, B. Peters, E. I. Proynov, P. A. Pieniazek, 
 Y. M. Rhee, J. Ritchie, E. Rosta, C. D. Sherrill, 
 A. C. Simmonett, J. E. Subotnik, H. L. Woodcock III,
 W. Zhang, A. T. Bell, A. K. Chakraborty, D. M. Chipman,
 F. J. Keil, A. Warshel, W. J. Hehre, H. F. Schaefer III,
 J. Kong, A. I. Krylov, P. M. W. Gill, M. Head-Gordon,

 Additional authors for Version 3.1: 
 Z. Gan, Y. Zhao, N. E. Schultz, D. Truhlar, E. Epifanovsky and M. Oana.

 Additional authors for Version 3.2: 
 R. Baer, B. R. Brooks, D. Casanova, J.-D. Chai, C.-L. Cheng, 
 C. Cramer, D. Crittenden, A. Ghysels, G. Hawkins, E. G. Hohenstein, 
 C. Kelley, W. Kurlancheek, D. Liotard, E. Livshits, P. Manohar, 
 A. Marenich, D. Neuhauser, R. Olson, M. A. Rohrdanz, K. S. Thanthiriwatte, 
 A. J. W. Thom, V. Vanovschi, C. F. Williams, Q. Wu and Z.-Q. You. 

 Additional authors for Version 4.0: 
 A. Aspuru-Guzik, C. Chang, R. G. Edgar, E. Sundstrom, J. Parkhill, K. Lawler,
 M. Gordon, M. Schmidt, N. Shenvi, D. Lambrecht, M. Goldey, R. Olivares-Amaya,
 Y. Bernard, L. Vogt, M. Watson, J. Liu, S. Yeganeh, B. Kaduk, O. Vydrov, X. Xu, 
 I. Kaliman, K. Khistyaev, N. Russ, I.Y. Zhang, W.A. Goddard III, F. Liu, R. King ,
 A. Landau, M. Wormit, A. Dreuw, M. Diedenhofen, A. Klamt, A.W. Lange, D. Ghosh,
 D. Kosenkov, T. Kus, A. Landau, D. Zuev, J. Deng, S.P. Mao, Y.C. Su, D. Small,
 L. D. Jacobson
 
 Q-Chem, Version 4.0.1, Q-Chem, Inc., Pittsburgh, PA (2007).


 MAC (Intel) OSX Version 4.1.0.1 

 Q-chem begins on Wed Apr 30 16:17:39 2014  

chemsrv2.anu.edu.au
Host: 0

     Scratch files written to /scratch/atg/local/qchem31088//
 Jan2214 |usr|local|qchem|17Jun13 -1
 Using version located at /usr/local/qchem/17Jun13/qchem/bin/qchem


theFileMan(): MAXOPENFILES=206 MAX_SUB_FILE_NUM=16
Maximum size of a physical file is 2.0 GB, maximum size of a tmp-file is 32.0 GB


Total Memory Limit in MB = 2000
Mega-Array Size in MB = 62
Finally everything over in PARseQInput

--------------------------------------------------------------
User input:
--------------------------------------------------------------
$molecule
0 1
  C    0.0000000    0.6266426    1.8305387
  C    0.0000000   -0.0836336    0.5021027
  C    0.0000000    0.8035223   -0.7295793
  C    0.0000000    0.0084663   -2.0225549
  O    0.0000000   -1.3120963    0.4393246
  H   -0.8962763    1.2455946    1.9151907
  H    0.8962763    1.2455946    1.9151907
  H    0.0000000   -0.1077035    2.6416420
  H    0.8896585    1.4405392   -0.6915619
  H   -0.8896585    1.4405392   -0.6915619
  H    0.8847773   -0.6328871   -2.0899395
  H    0.0000000    0.6827623   -2.8845937
  H   -0.8847773   -0.6328871   -2.0899395
$end

$rem
   BASIS       =  6-31G*
   DMA         =  1
   EXCHANGE    =  HF
   GUI         =  2
   MM_CHARGES  = true
   JOB_TYPE    = NMR
$end

--------------------------------------------------------------
 I, IOp=           1           2  D=  1.31628219791784706E-016 Fix sym
 I, IOp=           2           2  D=  1.01314076356162331E-016 Fix sym
 I, IOp=           3           2  D=  2.53074727420120758E-016 Fix sym
 I, IOp=           4           2  D=  2.60681284531623938E-016 Fix sym
 I, IOp=           5           2  D=  3.52112805374715196E-016 Fix sym
 I,J,IOp=           6           7           2  D=  8.88178419700125232E-016 Fix sym
 I, IOp=           8           2  D=  3.96694823569328974E-016 Fix sym
 I,J,IOp=           9          10           2  D=  4.44089209850062616E-016 Fix sym
 I,J,IOp=          11          13           2  D=  4.44089209850062616E-016 Fix sym
 I, IOp=          12           2  D=  5.19982987652751451E-016 Fix sym
 ----------------------------------------------------
       Standard Nuclear Orientation (Angstroms)
    I     Atom         X            Y            Z
 ----------------------------------------------------
    1      C       1.871034    -0.513529    -0.000000
    2      C       0.522124     0.157051    -0.000000
    3      C      -0.682715    -0.766230     0.000000
    4      C      -1.998693    -0.009857     0.000000
    5      O       0.422954     1.383113    -0.000000
    6      H       1.973999    -1.129699    -0.896276
    7      H       1.973999    -1.129699     0.896276
    8      H       2.660010     0.244541    -0.000000
    9      H      -0.625828    -1.401840     0.889659
   10      H      -0.625828    -1.401840    -0.889658
   11      H      -2.085062     0.629217     0.884777
   12      H      -2.840362    -0.709413     0.000000
   13      H      -2.085062     0.629217    -0.884777
 ----------------------------------------------------
 Molecular Point Group                 Cs    NOp =  2
 Largest Abelian Subgroup              Cs    NOp =  2
 Nuclear Repulsion Energy =   176.0742987226 hartrees
 There are       20 alpha and       20 beta electrons
 Requested basis set is 6-31G(d)
 There are 36 shells and 91 basis functions

Total QAlloc Memory Limit   2000 MB
Mega-Array Size        61 MB
MEM_STATIC part        62 MB

finished with qalloc call

                       Distance Matrix (Angstroms)
             C (  1)   C (  2)   C (  3)   C (  4)   O (  5)   H (  6)
   C (  2)  1.506398
   C (  3)  2.566221  1.517922
   C (  4)  3.902368  2.526337  1.517860
   O (  5)  2.386249  1.230066  2.417060  2.793696
   H (  6)  1.092510  2.137049  2.827286  4.223700  3.085980
   H (  7)  1.092510  2.137049  2.827286  4.223700  3.085980  1.792553
   H (  8)  1.094145  2.139675  3.492201  4.665643  2.510132  1.778330
   H (  9)  2.795516  2.130594  1.094864  2.147991  3.106026  3.165869
   H ( 10)  2.795516  2.130594  1.094864  2.147991  3.106026  2.614040
   H ( 11)  4.211816  2.793420  2.167183  1.094854  2.764296  4.768848
   H ( 12)  4.715466  3.472330  2.158395  1.094434  3.876583  4.915081
   H ( 13)  4.211816  2.793420  2.167183  1.094854  2.764296  4.423787
             H (  7)   H (  8)   H (  9)   H ( 10)   H ( 11)   H ( 12)
   H (  8)  1.778330
   H (  9)  2.614040  3.781375
   H ( 10)  3.165869  3.781375  1.779317
   H ( 11)  4.423787  4.842160  2.500916  3.066460
   H ( 12)  4.915081  5.582483  2.484976  2.484976  1.773482
   H ( 13)  4.768848  4.842160  3.066460  2.500916  1.769555  1.773482


 Job number = 2, Threshold = 1.00E-10
Integral type ranges set in mkLRange.C for JobNum: 2  <1-21|1-21>
Symmetry turned off temporarily
 Using the largest function pair in Schwarz integrals
Total number of integrals generated =           69315
Symmetry turned back on
 A cutoff of  1.0D-10 yielded    630 shell pairs
 There are      4233 function pairs
 Job number = 11, Threshold = 1.00E-10
Integral type ranges set in mkLRange.C for JobNum: 11  <1-21|22-22>
Total number of integrals generated =           48633
 Smallest overlap matrix eigenvalue = 4.13E-03
 Multipole matrices computed through 2nd order

  Scale SEOQF with 1.000000e-01/1.000000e+00/1.000000e+00

 Standard Electronic Orientation quadrupole field applied
 Nucleus-field energy     =     0.0000000182 hartrees
 Guess from superposition of atomic densities
 Warning:  Energy on first SCF cycle will be non-variational
scfman initvdwdat 
 A restricted Hartree-Fock SCF calculation will be
 performed using Pulay DIIS extrapolation
 SCF converges when DIIS error is below 1.0E-07
Finding J and K together
 Job number = 22, Threshold = 1.00E-10
Integral type ranges set in mkLRange.C for JobNum: 22  <1-21|1-21>
Approximate symmetry reduction factor = 1.070588
Storing 21.72% of integrals
Total number of integrals generated =         8106674
Fock build time:  1.26 s (CPU) 1.77 s (wall)
DIIS Errors:  Max 9.06E-01 RMS 8.49E-02

Current DIIS subspace size = 1
REM_GRID_RESTART_DIIS = 0

 ---------------------------------------
  Cycle       Energy         DIIS Error
 ---------------------------------------
    1    -232.3274146321      8.49E-02  00000
Finding J and K together
 Job number = 22, Threshold = 1.00E-10
Integral type ranges set in mkLRange.C for JobNum: 22  <1-21|1-21>
Approximate symmetry reduction factor = 1.070588
Storing 21.72% of integrals
Reusing in-core integrals buffer for job 22
Fock build time:  0.58 s (CPU) 0.58 s (wall)
DIIS Errors:  Max 2.24E-01 RMS 1.03E-02

Current DIIS subspace size = 2
REM_GRID_RESTART_DIIS = 0

    2    -230.8766863849      1.03E-02  00000
Finding J and K together
 Job number = 22, Threshold = 1.00E-10
Integral type ranges set in mkLRange.C for JobNum: 22  <1-21|1-21>
Approximate symmetry reduction factor = 1.070588
Storing 21.72% of integrals
Reusing in-core integrals buffer for job 22
Fock build time:  0.57 s (CPU) 0.57 s (wall)
DIIS Errors:  Max 1.84E-01 RMS 7.88E-03

Current DIIS subspace size = 3
REM_GRID_RESTART_DIIS = 0

    3    -230.9454163231      7.88E-03  00000
Finding J and K together
 Job number = 22, Threshold = 1.00E-10
Integral type ranges set in mkLRange.C for JobNum: 22  <1-21|1-21>
Approximate symmetry reduction factor = 1.070588
Storing 21.72% of integrals
Reusing in-core integrals buffer for job 22
Fock build time:  0.57 s (CPU) 0.57 s (wall)
DIIS Errors:  Max 2.23E-02 RMS 1.08E-03

Current DIIS subspace size = 4
REM_GRID_RESTART_DIIS = 0

    4    -230.9920099732      1.08E-03  00000
Finding J and K together
 Job number = 22, Threshold = 1.00E-10
Integral type ranges set in mkLRange.C for JobNum: 22  <1-21|1-21>
Approximate symmetry reduction factor = 1.070588
Storing 21.72% of integrals
Reusing in-core integrals buffer for job 22
Fock build time:  0.57 s (CPU) 0.57 s (wall)
DIIS Errors:  Max 7.27E-03 RMS 2.84E-04

Current DIIS subspace size = 5
REM_GRID_RESTART_DIIS = 0

    5    -230.9941396476      2.84E-04  00000
Finding J and K together
 Job number = 22, Threshold = 1.00E-10
Integral type ranges set in mkLRange.C for JobNum: 22  <1-21|1-21>
Approximate symmetry reduction factor = 1.070588
Storing 21.72% of integrals
Reusing in-core integrals buffer for job 22
Fock build time:  0.57 s (CPU) 0.57 s (wall)
DIIS Errors:  Max 2.94E-03 RMS 1.26E-04

Current DIIS subspace size = 6
REM_GRID_RESTART_DIIS = 0

    6    -230.9943201153      1.26E-04  00000
Finding J and K together
 Job number = 22, Threshold = 1.00E-10
Integral type ranges set in mkLRange.C for JobNum: 22  <1-21|1-21>
Approximate symmetry reduction factor = 1.070588
Storing 21.72% of integrals
Reusing in-core integrals buffer for job 22
Fock build time:  0.57 s (CPU) 0.57 s (wall)
DIIS Errors:  Max 1.48E-03 RMS 5.31E-05

Current DIIS subspace size = 7
REM_GRID_RESTART_DIIS = 0

    7    -230.9943651404      5.31E-05  00000
Finding J and K together
 Job number = 22, Threshold = 1.00E-10
Integral type ranges set in mkLRange.C for JobNum: 22  <1-21|1-21>
Approximate symmetry reduction factor = 1.070588
Storing 21.72% of integrals
Reusing in-core integrals buffer for job 22
Fock build time:  0.57 s (CPU) 0.57 s (wall)
DIIS Errors:  Max 4.10E-04 RMS 1.40E-05

Current DIIS subspace size = 8
REM_GRID_RESTART_DIIS = 0

    8    -230.9943721155      1.40E-05  00000
Finding J and K together
 Job number = 22, Threshold = 1.00E-10
Integral type ranges set in mkLRange.C for JobNum: 22  <1-21|1-21>
Approximate symmetry reduction factor = 1.070588
Storing 21.72% of integrals
Reusing in-core integrals buffer for job 22
Fock build time:  0.57 s (CPU) 0.57 s (wall)
DIIS Errors:  Max 3.45E-05 RMS 2.42E-06

Current DIIS subspace size = 9
REM_GRID_RESTART_DIIS = 0

    9    -230.9943726377      2.42E-06  00000
Finding J and K together
 Job number = 22, Threshold = 1.00E-10
Integral type ranges set in mkLRange.C for JobNum: 22  <1-21|1-21>
Approximate symmetry reduction factor = 1.070588
Storing 21.72% of integrals
Reusing in-core integrals buffer for job 22
Fock build time:  0.57 s (CPU) 0.57 s (wall)
DIIS Errors:  Max 1.14E-05 RMS 7.26E-07

Current DIIS subspace size = 10
REM_GRID_RESTART_DIIS = 0

   10    -230.9943726493      7.26E-07  00000
Finding J and K together
 Job number = 22, Threshold = 1.00E-10
Integral type ranges set in mkLRange.C for JobNum: 22  <1-21|1-21>
Approximate symmetry reduction factor = 1.070588
Storing 21.72% of integrals
Reusing in-core integrals buffer for job 22
Fock build time:  0.57 s (CPU) 0.57 s (wall)
DIIS Errors:  Max 2.97E-06 RMS 1.24E-07

Current DIIS subspace size = 11
REM_GRID_RESTART_DIIS = 0

   11    -230.9943726503      1.24E-07  00000
Finding J and K together
 Job number = 22, Threshold = 1.00E-10
Integral type ranges set in mkLRange.C for JobNum: 22  <1-21|1-21>
Approximate symmetry reduction factor = 1.070588
Storing 21.72% of integrals
Reusing in-core integrals buffer for job 22
Fock build time:  0.57 s (CPU) 0.57 s (wall)
DIIS Errors:  Max 7.43E-07 RMS 2.79E-08

Current DIIS subspace size = 12
REM_GRID_RESTART_DIIS = 0

   12    -230.9943726504      2.79E-08  00000 Convergence criterion met
 ---------------------------------------
 SCF time:  CPU 7.71 s  wall 8.29 s
Here are the indices for MO re-ordering:
0 1 2 3 4 5 6 7 8 9 11 14 10 12 13 15 16 17 18 19 20 21 22 23 24 26 29 25 27 28 30 31 32 33 34 35 36 37 38 39 41 44 40 42 43 45 46 47 48 49 50 51 52 53 54 56 59 55 57 58 60 61 62 63 64 65 66 67 68 69 71 74 70 72 73 75 76 77 78 79 80 81 82 83 84 85 86 87 88 89 90 Here are the indices for MO re-ordering:
0 1 2 3 4 5 6 7 8 9 11 14 10 12 13 15 16 17 18 19 20 21 22 23 24 26 29 25 27 28 30 31 32 33 34 35 36 37 38 39 41 44 40 42 43 45 46 47 48 49 50 51 52 53 54 56 59 55 57 58 60 61 62 63 64 65 66 67 68 69 71 74 70 72 73 75 76 77 78 79 80 81 82 83 84 85 86 87 88 89 90  SCF   energy in the final basis set = -230.9943726504
 Total energy in the final basis set = -230.9943726504
WARNING: SYMMETRY USAGE disabled in D-CPSCF for now... 
      ==================================================== 
      ===                                              === 
      ===                   D-GIAO-SCF                 === 
      ===                                              === 
      ===          J.Kussmann and C.Ochsenfeld         === 
      ===                                              === 
      ===                                              === 
      ==================================================== 
 Job number = 82, Threshold = 1.00E-10
Integral type ranges set in mkLRange.C for JobNum: 82  <1-21|22-22>
Total number of integrals generated =           55029
 MakeEFS time:  CPU       0.05 s  wall       0.08 s
         ============================================= 
         ===                                       === 
         ===             Let's do D-CPSCF          === 
         ===                                       === 
         ============================================= 
Using standard thresholds as set in input file 
LEQS: solver= 40 itmax= 100 lev2max= 75 tol= 0e+00 lev2tol= 1e-02 
      itol= 2  dodiis = 5 
 Sinv time:  CPU       0.00 s  wall       0.01 s
There are 3 perturbations to be evaluated (Bx, By, Bz)
GIAO-D-CPSCF will evaluate 3 perturbation(s) at once 
============================================================
NEXT PERTURBATION(S).... 0 --> 2 

Build one-electron first derivatives... (d/dB)

 Job number = 80, Threshold = 1.00E-10
Integral type ranges set in mkLRange.C for JobNum: 80  <1-21|22-22>
Symmetry turned off temporarily
Symmetry turned back on
 getshB time:  CPU       0.02 s  wall       0.03 s
 getPSxP time:  CPU       0.00 s  wall       0.00 s

Calculating d/dB J and d/dB K

 Job number = 185, Threshold = 1.00E-10
Integral type ranges set in mkLRange.C for JobNum: 85  <1-21|1-21>
Total number of integrals generated =         8727258
 MakeJKB time:  CPU      16.10 s  wall      16.18 s
 getderivB time:  CPU      16.11 s  wall      16.19 s
 RHS time:  CPU      16.15 s  wall      16.31 s
 Job number = 81, Threshold = 1.00E-10
Integral type ranges set in mkLRange.C for JobNum: 81  <1-21|22-22>
Total number of integrals generated =           55029
 MakeSOI time:  CPU       0.07 s  wall       0.08 s

 Level-2 iteration 0  max. difference = 1.000000e+10


 Now solving A1x=b via cg ... 
 Level-1 loop converged --- 10 iterations 
 Final A1x residuum = 6.944434e-03 max_element = 2.055039e-01 
 CG time:  CPU       0.10 s  wall       0.12 s

 Done with level 1 ... and now level 3 

 Job number = 32, Threshold = 1.00E-10
Integral type ranges set in mkLRange.C for JobNum: 32  <1-21|1-21>
Storing 20.29% of integrals
Total number of integrals generated =         8922441
 getnfock time:  CPU       2.23 s  wall       2.24 s
 Fock in Hess time:  CPU       2.23 s  wall       2.24 s
 Job number = 81, Threshold = 1.00E-10
Integral type ranges set in mkLRange.C for JobNum: 81  <1-21|22-22>
Total number of integrals generated =           55029
 MakeSOI time:  CPU       0.07 s  wall       0.07 s

 ======================================================
   Intermediate isotropic shifts
 ======================================================
       ATOM           ISOTROPIC         DIFF
  ------------------------------------------------
   Atom C     1     217.57588035     -109.54797760
   Atom C     2     138.03926685     -161.71276096
   Atom C     3     216.71690175     -119.26258785
   Atom C     4     225.35801754     -116.65631480
   Atom O     5     218.93115756     -200.86970289
   Atom H     6      31.10656159        0.15116628
   Atom H     7      31.10656159        0.15116628
   Atom H     8      29.98828469        2.54430386
   Atom H     9      32.23113084       -2.12705418
   Atom H    10      32.23113084       -2.12705418
   Atom H    11      32.00849184       -1.68563948
   Atom H    12      30.22334421        5.28501192
   Atom H    13      32.00849184       -1.68563948

   max. difference:   -200.86970289 (Nuc. 5)
 ======================================================


 Level-2 iteration 1  max. difference = 2.008697e+02


 Now solving A1x=b via cg ... 
 Level-1 loop converged --- 10 iterations 
 Final A1x residuum = 5.414231e-02 max_element = 3.961214e-01 
 CG time:  CPU       0.09 s  wall       0.09 s

 Done with level 1 ... and now level 3 

 Job number = 32, Threshold = 1.00E-10
Integral type ranges set in mkLRange.C for JobNum: 32  <1-21|1-21>
Storing 20.29% of integrals
Total number of integrals generated =         8977470
 getnfock time:  CPU       2.23 s  wall       2.24 s
 Fock in Hess time:  CPU       2.23 s  wall       2.24 s
 Job number = 81, Threshold = 1.00E-10
Integral type ranges set in mkLRange.C for JobNum: 81  <1-21|22-22>
Total number of integrals generated =           55029
 MakeSOI time:  CPU       0.07 s  wall       0.07 s

 ======================================================
   Intermediate isotropic shifts
 ======================================================
       ATOM           ISOTROPIC         DIFF
  ------------------------------------------------
   Atom C     1     181.16892926      -36.40695109
   Atom C     2      43.52033199      -94.51893486
   Atom C     3     177.92020844      -38.79669331
   Atom C     4     194.66360263      -30.69441491
   Atom O     5     -10.52078997     -229.45194753
   Atom H     6      30.92183440       -0.18472718
   Atom H     7      30.92183440       -0.18472718
   Atom H     8      30.06410542        0.07582073
   Atom H     9      31.12104034       -1.11009049
   Atom H    10      31.12104034       -1.11009049
   Atom H    11      31.43060468       -0.57788716
   Atom H    12      31.20862547        0.98528126
   Atom H    13      31.43060468       -0.57788716

   max. difference:   -229.45194753 (Nuc. 5)
 ======================================================


 Level-2 iteration 2  max. difference = 2.294519e+02


 Now solving A1x=b via cg ... 
 Level-1 loop converged --- 10 iterations 
 Final A1x residuum = 6.947330e-02 max_element = 5.271617e-01 
 CG time:  CPU       0.09 s  wall       0.09 s

 Done with level 1 ... and now level 3 

 Job number = 32, Threshold = 1.00E-10
Integral type ranges set in mkLRange.C for JobNum: 32  <1-21|1-21>
Storing 20.29% of integrals
Total number of integrals generated =         8977470
 getnfock time:  CPU       2.23 s  wall       2.24 s
 Fock in Hess time:  CPU       2.23 s  wall       2.24 s
 Job number = 81, Threshold = 1.00E-10
Integral type ranges set in mkLRange.C for JobNum: 81  <1-21|22-22>
Total number of integrals generated =           55029
 MakeSOI time:  CPU       0.07 s  wall       0.07 s

 ======================================================
   Intermediate isotropic shifts
 ======================================================
       ATOM           ISOTROPIC         DIFF
  ------------------------------------------------
   Atom C     1     171.85648633       -9.31244293
   Atom C     2       4.56144570      -38.95888629
   Atom C     3     168.10193854       -9.81826990
   Atom C     4     188.21185999       -6.45174264
   Atom O     5    -171.33243180     -160.81164183
   Atom H     6      30.84346654       -0.07836786
   Atom H     7      30.84346654       -0.07836786
   Atom H     8      30.31359771        0.24949229
   Atom H     9      30.70467350       -0.41636685
   Atom H    10      30.70467350       -0.41636685
   Atom H    11      31.24297887       -0.18762581
   Atom H    12      31.81031676        0.60169129
   Atom H    13      31.24297887       -0.18762581

   max. difference:   -160.81164183 (Nuc. 5)
 ======================================================


 Level-2 iteration 3  max. difference = 1.608116e+02


 Now solving A1x=b via cg ... 
 Level-1 loop converged --- 10 iterations 
 Final A1x residuum = 7.229850e-02 max_element = 5.815805e-01 
 CG time:  CPU       0.09 s  wall       0.09 s

 Done with level 1 ... and now level 3 

 Job number = 32, Threshold = 1.00E-10
Integral type ranges set in mkLRange.C for JobNum: 32  <1-21|1-21>
Storing 20.29% of integrals
Total number of integrals generated =         8977470
 getnfock time:  CPU       2.23 s  wall       2.24 s
 Fock in Hess time:  CPU       2.23 s  wall       2.24 s
 Job number = 81, Threshold = 1.00E-10
Integral type ranges set in mkLRange.C for JobNum: 81  <1-21|22-22>
Total number of integrals generated =           55029
 MakeSOI time:  CPU       0.07 s  wall       0.07 s

 ======================================================
   Intermediate isotropic shifts
 ======================================================
       ATOM           ISOTROPIC         DIFF
  ------------------------------------------------
   Atom C     1     171.07230175       -0.78418458
   Atom C     2      -9.81596635      -14.37741206
   Atom C     3     167.42107913       -0.68085941
   Atom C     4     188.83091528        0.61905529
   Atom O     5    -285.60271812     -114.27028632
   Atom H     6      30.76245875       -0.08100778
   Atom H     7      30.76245875       -0.08100778
   Atom H     8      30.39899501        0.08539730
   Atom H     9      30.56030951       -0.14436399
   Atom H    10      30.56030951       -0.14436399
   Atom H    11      31.22380457       -0.01917430
   Atom H    12      31.91742017        0.10710341
   Atom H    13      31.22380457       -0.01917430

   max. difference:   -114.27028632 (Nuc. 5)
 ======================================================


 Level-2 iteration 4  max. difference = 1.142703e+02


 Now solving A1x=b via cg ... 
 Level-1 loop converged --- 10 iterations 
 Final A1x residuum = 7.305125e-02 max_element = 6.017521e-01 
 CG time:  CPU       0.09 s  wall       0.09 s

 Done with level 1 ... and now level 3 

 Job number = 32, Threshold = 1.00E-10
Integral type ranges set in mkLRange.C for JobNum: 32  <1-21|1-21>
Storing 20.29% of integrals
Total number of integrals generated =         8977470
 getnfock time:  CPU       2.23 s  wall       2.23 s
 Fock in Hess time:  CPU       2.23 s  wall       2.24 s
 Job number = 81, Threshold = 1.00E-10
Integral type ranges set in mkLRange.C for JobNum: 81  <1-21|22-22>
Total number of integrals generated =           55029
 MakeSOI time:  CPU       0.07 s  wall       0.07 s

 ======================================================
   Intermediate isotropic shifts
 ======================================================
       ATOM           ISOTROPIC         DIFF
  ------------------------------------------------
   Atom C     1     171.70754055        0.63523880
   Atom C     2      -9.16400692        0.65195943
   Atom C     3     168.10143062        0.68035149
   Atom C     4     189.48710474        0.65618946
   Atom O     5    -304.01596185      -18.41324373
   Atom H     6      30.74848518       -0.01397357
   Atom H     7      30.74848518       -0.01397357
   Atom H     8      30.39351937       -0.00547564
   Atom H     9      30.56335152        0.00304202
   Atom H    10      30.56335152        0.00304202
   Atom H    11      31.21036532       -0.01343925
   Atom H    12      31.86974470       -0.04767547
   Atom H    13      31.21036532       -0.01343925

   max. difference:    -18.41324373 (Nuc. 5)
 ======================================================


 Level-2 iteration 5  max. difference = 1.841324e+01


 Now solving A1x=b via cg ... 
 Level-1 loop converged --- 10 iterations 
 Final A1x residuum = 7.313610e-02 max_element = 6.028916e-01 
 CG time:  CPU       0.09 s  wall       0.09 s

 Done with level 1 ... and now level 3 

 Job number = 32, Threshold = 1.00E-10
Integral type ranges set in mkLRange.C for JobNum: 32  <1-21|1-21>
Storing 20.29% of integrals
Total number of integrals generated =         8977470
 getnfock time:  CPU       2.23 s  wall       2.23 s
 Fock in Hess time:  CPU       2.23 s  wall       2.23 s
 Job number = 81, Threshold = 1.00E-10
Integral type ranges set in mkLRange.C for JobNum: 81  <1-21|22-22>
Total number of integrals generated =           55029
 MakeSOI time:  CPU       0.07 s  wall       0.07 s

 ======================================================
   Intermediate isotropic shifts
 ======================================================
       ATOM           ISOTROPIC         DIFF
  ------------------------------------------------
   Atom C     1     171.92691951        0.21937896
   Atom C     2      -8.40381127        0.76019565
   Atom C     3     168.30525587        0.20382525
   Atom C     4     189.65316682        0.16606208
   Atom O     5    -306.64140284       -2.62544099
   Atom H     6      30.74411455       -0.00437063
   Atom H     7      30.74411455       -0.00437063
   Atom H     8      30.39441147        0.00089210
   Atom H     9      30.56469239        0.00134087
   Atom H    10      30.56469239        0.00134087
   Atom H    11      31.20835552       -0.00200980
   Atom H    12      31.85839839       -0.01134632
   Atom H    13      31.20835552       -0.00200980

   max. difference:     -2.62544099 (Nuc. 5)
 ======================================================


 Level-2 iteration 6  max. difference = 2.625441e+00


 Now solving A1x=b via cg ... 
 Level-1 loop converged --- 10 iterations 
 Final A1x residuum = 7.314239e-02 max_element = 6.027726e-01 
 CG time:  CPU       0.09 s  wall       0.09 s

 Done with level 1 ... and now level 3 

 Job number = 32, Threshold = 1.00E-10
Integral type ranges set in mkLRange.C for JobNum: 32  <1-21|1-21>
Storing 20.29% of integrals
Total number of integrals generated =         8977470
 getnfock time:  CPU       2.23 s  wall       2.24 s
 Fock in Hess time:  CPU       2.23 s  wall       2.24 s
 Job number = 81, Threshold = 1.00E-10
Integral type ranges set in mkLRange.C for JobNum: 81  <1-21|22-22>
Total number of integrals generated =           55029
 MakeSOI time:  CPU       0.07 s  wall       0.07 s

 ======================================================
   Intermediate isotropic shifts
 ======================================================
       ATOM           ISOTROPIC         DIFF
  ------------------------------------------------
   Atom C     1     171.95053202        0.02361251
   Atom C     2      -8.10238485        0.30142642
   Atom C     3     168.30688496        0.00162909
   Atom C     4     189.64378307       -0.00938374
   Atom O     5    -307.12186454       -0.48046170
   Atom H     6      30.74307883       -0.00103572
   Atom H     7      30.74307883       -0.00103572
   Atom H     8      30.39571754        0.00130607
   Atom H     9      30.56746317        0.00277077
   Atom H    10      30.56746317        0.00277077
   Atom H    11      31.20723686       -0.00111866
   Atom H    12      31.85555913       -0.00283925
   Atom H    13      31.20723686       -0.00111866

   max. difference:     -0.48046170 (Nuc. 5)
 ======================================================


 Level-2 iteration 7  max. difference = 4.804617e-01


 Now solving A1x=b via cg ... 
 Level-1 loop converged --- 10 iterations 
 Final A1x residuum = 7.314100e-02 max_element = 6.027463e-01 
 CG time:  CPU       0.09 s  wall       0.09 s

 Done with level 1 ... and now level 3 

 Job number = 32, Threshold = 1.00E-10
Integral type ranges set in mkLRange.C for JobNum: 32  <1-21|1-21>
Storing 20.29% of integrals
Total number of integrals generated =         8977470
 getnfock time:  CPU       2.23 s  wall       2.23 s
 Fock in Hess time:  CPU       2.23 s  wall       2.23 s
 Job number = 81, Threshold = 1.00E-10
Integral type ranges set in mkLRange.C for JobNum: 81  <1-21|22-22>
Total number of integrals generated =           55029
 MakeSOI time:  CPU       0.07 s  wall       0.07 s

 ======================================================
   Intermediate isotropic shifts
 ======================================================
       ATOM           ISOTROPIC         DIFF
  ------------------------------------------------
   Atom C     1     171.93897946       -0.01155256
   Atom C     2      -8.03235256        0.07003229
   Atom C     3     168.28607694       -0.02080802
   Atom C     4     189.62314709       -0.02063599
   Atom O     5    -307.12025152        0.00161303
   Atom H     6      30.74328024        0.00020142
   Atom H     7      30.74328024        0.00020142
   Atom H     8      30.39642362        0.00070609
   Atom H     9      30.56837058        0.00090742
   Atom H    10      30.56837058        0.00090742
   Atom H    11      31.20698056       -0.00025630
   Atom H    12      31.85556382        0.00000469
   Atom H    13      31.20698056       -0.00025630

   max. difference:      0.07003229 (Nuc. 2)
 ======================================================


 Level-2 iteration 8  max. difference = 7.003229e-02


 Now solving A1x=b via cg ... 
 Level-1 loop converged --- 10 iterations 
 Final A1x residuum = 7.314093e-02 max_element = 6.027042e-01 
 CG time:  CPU       0.09 s  wall       0.09 s

 Done with level 1 ... and now level 3 

 Job number = 32, Threshold = 1.00E-10
Integral type ranges set in mkLRange.C for JobNum: 32  <1-21|1-21>
Storing 20.29% of integrals
Total number of integrals generated =         8977470
 getnfock time:  CPU       2.23 s  wall       2.23 s
 Fock in Hess time:  CPU       2.23 s  wall       2.23 s
 Job number = 81, Threshold = 1.00E-10
Integral type ranges set in mkLRange.C for JobNum: 81  <1-21|22-22>
Total number of integrals generated =           55029
 MakeSOI time:  CPU       0.07 s  wall       0.07 s

 ======================================================
   Intermediate isotropic shifts
 ======================================================
       ATOM           ISOTROPIC         DIFF
  ------------------------------------------------
   Atom C     1     171.93815475       -0.00082471
   Atom C     2      -8.03103764        0.00131492
   Atom C     3     168.28334373       -0.00273321
   Atom C     4     189.62153048       -0.00161661
   Atom O     5    -307.11385913        0.00639238
   Atom H     6      30.74330574        0.00002549
   Atom H     7      30.74330574        0.00002549
   Atom H     8      30.39659976        0.00017614
   Atom H     9      30.56846277        0.00009219
   Atom H    10      30.56846277        0.00009219
   Atom H    11      31.20688690       -0.00009366
   Atom H    12      31.85570555        0.00014173
   Atom H    13      31.20688690       -0.00009366

   max. difference:      0.00639238 (Nuc. 5)
 ======================================================


 Level-2 iteration 9  max. difference = 6.392383e-03

D-CPSCF converged!!! 
Level-2 loop converged!!! 
========================= 
 Job number = 81, Threshold = 1.00E-10
Integral type ranges set in mkLRange.C for JobNum: 81  <1-21|22-22>
 MakeSOI time:  CPU       0.07 s  wall       0.07 s


 A miracle has come to pass --- everything converged!!! 


 D-CPSCF terminated its mission successfully 


         ============================================= 
         ===                                       === 
         ===             Ciao   D-CPSCF ...        === 
         ===                                       === 
         ============================================= 

WARNING: no symmetry was used (preliminary integrals)


----------------------------------------------
  Reference values
----------------------------------------------
  Atom: H 
     Reference system:   TMS
     Method:             HF
     Basis:              6-31G(d)
     Geometry:           HF/6-31G(d)
     Shift:                  32.90304886
     Offset:                  0.00000000

  Atom: C 
     Reference system:   TMS
     Method:             HF
     Basis:              6-31G(d)
     Geometry:           HF/6-31G(d)
     Shift:                 201.72740829
     Offset:                  0.00000000

----------------------------------------------


          ============================================= 
          ===                                       === 
          ===       NMR-SHIELDING TENSORS (SCF)     === 
          ===                                       === 
          ============================================= 


  -------------------
  -- ATOM  C     1 --
  -------------------

   ISOTROPIC:    171.93815475          ANISOTROPIC:     45.59316260

   diamagnetic (undisturbed density) part of shielding tensor  (EFS)
      Trace =    256.99411868
      Full Tensor:
                263.69357581           -5.87143730            0.00000000
                 -5.10130295          255.37017889            0.00000000
                  0.00000000            0.00000000          251.91860134
   paramagnetic (undisturbed density) part of shielding tensor (SOILP)
      Trace =     -6.55265133
      Full Tensor:
                 -6.02723995           -1.48008600            0.00000000
                  1.68839158           -6.94663296            0.00000000
                 -0.00000000            0.00000000           -6.68408108
   paramagnetic (disturbed density) part of shielding tensor   (SOI)
      Trace =    -78.50331259
      Full Tensor:
                -57.60448608            4.43405226           -0.00000000
                -13.11400434          -88.27030039           -0.00000000
                 -0.00000000           -0.00000000          -89.63515132
   total shielding tensor
      Trace =    171.93815475
      Full Tensor:
                200.06184978           -2.91747104           -0.00000000
                -16.52691570          160.15324554           -0.00000000
                 -0.00000000           -0.00000000          155.59936894


  -------------------
  -- ATOM  C     2 --
  -------------------

   ISOTROPIC:     -8.03103764          ANISOTROPIC:    210.11204576

   diamagnetic (undisturbed density) part of shielding tensor  (EFS)
      Trace =    249.86867422
      Full Tensor:
                257.33762872            0.01183626            0.00000000
                 -0.49399552          260.62701241            0.00000000
                  0.00000000           -0.00000000          231.64138152
   paramagnetic (undisturbed density) part of shielding tensor (SOILP)
      Trace =     -7.26459028
      Full Tensor:
                 -0.27416647            0.49311924            0.00000000
                  0.23788822           -4.25727212            0.00000000
                  0.00000000           -0.00000000          -17.26233224
   paramagnetic (disturbed density) part of shielding tensor   (SOI)
      Trace =   -250.63512158
      Full Tensor:
               -359.85406502           -0.86966149            0.00000000
                 -2.16540812         -306.34746650            0.00000000
                  0.00000000           -0.00000000          -85.70383322
   total shielding tensor
      Trace =     -8.03103764
      Full Tensor:
               -102.79060277           -0.36470599            0.00000000
                 -2.42151543          -49.97772621            0.00000000
                  0.00000000           -0.00000000          128.67521606


  -------------------
  -- ATOM  C     3 --
  -------------------

   ISOTROPIC:    168.28334373          ANISOTROPIC:     37.63516015

   diamagnetic (undisturbed density) part of shielding tensor  (EFS)
      Trace =    255.72384100
      Full Tensor:
                264.26496577            1.21848285            0.00000000
                  1.24246338          255.62848376            0.00000000
                 -0.00000000           -0.00000000          247.27807348
   paramagnetic (undisturbed density) part of shielding tensor (SOILP)
      Trace =     -7.58175043
      Full Tensor:
                 -7.54169927           -0.39029979            0.00000000
                 -0.25989795           -7.69288341           -0.00000000
                 -0.00000000           -0.00000000           -7.51066860
   paramagnetic (disturbed density) part of shielding tensor   (SOI)
      Trace =    -79.85874685
      Full Tensor:
                -66.94995981            2.85717574            0.00000000
                 16.98643302          -93.32015023           -0.00000000
                 -0.00000000           -0.00000000          -79.30613050
   total shielding tensor
      Trace =    168.28334373
      Full Tensor:
                189.77330668            3.68535880            0.00000000
                 17.96899846          154.61545012           -0.00000000
                 -0.00000000           -0.00000000          160.46127438


  -------------------
  -- ATOM  C     4 --
  -------------------

   ISOTROPIC:    189.62153048          ANISOTROPIC:      8.21509582

   diamagnetic (undisturbed density) part of shielding tensor  (EFS)
      Trace =    255.14418078
      Full Tensor:
                263.48449825           -4.48651709           -0.00000000
                 -4.12221071          253.07429699           -0.00000000
                  0.00000000           -0.00000000          248.87374708
   paramagnetic (undisturbed density) part of shielding tensor (SOILP)
      Trace =    -11.54453420
      Full Tensor:
                 -7.67972663           -0.80091214            0.00000000
                 -2.22100710          -12.54414951           -0.00000000
                  0.00000000            0.00000000          -14.40972645
   paramagnetic (disturbed density) part of shielding tensor   (SOI)
      Trace =    -53.97811609
      Full Tensor:
                -61.43842025            3.83155171            0.00000000
                  5.16993921          -51.31053926            0.00000000
                  0.00000000            0.00000000          -49.18538878
   total shielding tensor
      Trace =    189.62153048
      Full Tensor:
                194.36635137           -1.45587752            0.00000000
                 -1.17327860          189.21960823            0.00000000
                  0.00000000            0.00000000          185.27863185


  -------------------
  -- ATOM  O     5 --
  -------------------

   ISOTROPIC:   -307.11385913          ANISOTROPIC:   1092.85513961

   diamagnetic (undisturbed density) part of shielding tensor  (EFS)
      Trace =    398.80477233
      Full Tensor:
                388.02956148           -2.84233743            0.00000000
                 -1.63418089          416.69126542            0.00000000
                  0.00000000           -0.00000000          391.69349009
   paramagnetic (undisturbed density) part of shielding tensor (SOILP)
      Trace =     -0.94964796
      Full Tensor:
                  0.58424202           -1.65243238            0.00000000
                 -0.85815243            3.30460537           -0.00000000
                 -0.00000000           -0.00000000           -6.73779128
   paramagnetic (disturbed density) part of shielding tensor   (SOI)
      Trace =   -704.96898350
      Full Tensor:
               -844.75571451           48.12014226           -0.00000000
                 22.18643115        -1269.40315075           -0.00000000
                 -0.00000000            0.00000000           -0.74808525
   total shielding tensor
      Trace =   -307.11385913
      Full Tensor:
               -456.14191100           43.62537245           -0.00000000
                 19.69409782         -849.40727996           -0.00000000
                 -0.00000000            0.00000000          384.20761356


  -------------------
  -- ATOM  H     6 --
  -------------------

   ISOTROPIC:     30.74330574          ANISOTROPIC:      5.66452630

   diamagnetic (undisturbed density) part of shielding tensor  (EFS)
      Trace =     25.87907899
      Full Tensor:
                 21.28227144           -3.74856653           -3.52501699
                 -3.31956396           25.13985335           10.72289957
                 -3.27022961           11.06187198           31.21511219
   paramagnetic (undisturbed density) part of shielding tensor (SOILP)
      Trace =      4.11038408
      Full Tensor:
                  6.23961168           -0.62440934            0.83097866
                  0.08990645            4.86297912           -3.92861663
                 -0.10036983           -4.42353576            1.22856144
   paramagnetic (disturbed density) part of shielding tensor   (SOI)
      Trace =      0.75384266
      Full Tensor:
                  3.46312883            3.32297787            1.17774309
                  3.83158481           -0.07250012           -4.43216284
                  1.84943999           -3.40901719           -1.12910072
   total shielding tensor
      Trace =     30.74330574
      Full Tensor:
                 30.98501195           -1.04999800           -1.51629524
                  0.60192729           29.93033235            2.36212011
                 -1.52115945            3.22931902           31.31457291


  -------------------
  -- ATOM  H     7 --
  -------------------

   ISOTROPIC:     30.74330574          ANISOTROPIC:      5.66452630

   diamagnetic (undisturbed density) part of shielding tensor  (EFS)
      Trace =     25.87907899
      Full Tensor:
                 21.28227144           -3.74856653            3.52501699
                 -3.31956396           25.13985335          -10.72289957
                  3.27022961          -11.06187198           31.21511219
   paramagnetic (undisturbed density) part of shielding tensor (SOILP)
      Trace =      4.11038408
      Full Tensor:
                  6.23961168           -0.62440934           -0.83097866
                  0.08990645            4.86297912            3.92861663
                  0.10036983            4.42353576            1.22856144
   paramagnetic (disturbed density) part of shielding tensor   (SOI)
      Trace =      0.75384266
      Full Tensor:
                  3.46312883            3.32297787           -1.17774309
                  3.83158481           -0.07250012            4.43216284
                 -1.84943999            3.40901719           -1.12910072
   total shielding tensor
      Trace =     30.74330574
      Full Tensor:
                 30.98501195           -1.04999800            1.51629524
                  0.60192729           29.93033235           -2.36212011
                  1.52115945           -3.22931902           31.31457291


  -------------------
  -- ATOM  H     8 --
  -------------------

   ISOTROPIC:     30.39659976          ANISOTROPIC:      7.75575606

   diamagnetic (undisturbed density) part of shielding tensor  (EFS)
      Trace =     25.60874783
      Full Tensor:
                 33.85338823            9.56049147           -0.00000000
                  9.63463652           27.01922815           -0.00000000
                  0.00000000            0.00000000           15.95362711
   paramagnetic (undisturbed density) part of shielding tensor (SOILP)
      Trace =      3.81611101
      Full Tensor:
                  3.07589800           -4.68264837            0.00000000
                 -3.18769620            2.13856245           -0.00000000
                  0.00000000           -0.00000000            6.23387257
   paramagnetic (disturbed density) part of shielding tensor   (SOI)
      Trace =      0.97174093
      Full Tensor:
                 -3.25588623           -0.11467447           -0.00000000
                 -5.76911608            1.74433496            0.00000000
                 -0.00000000            0.00000000            4.42677404
   total shielding tensor
      Trace =     30.39659976
      Full Tensor:
                 33.67340000            4.76316863           -0.00000000
                  0.67782424           30.90212556            0.00000000
                 -0.00000000            0.00000000           26.61427373


  -------------------
  -- ATOM  H     9 --
  -------------------

   ISOTROPIC:     30.56846277          ANISOTROPIC:      7.51653952

   diamagnetic (undisturbed density) part of shielding tensor  (EFS)
      Trace =     26.23017596
      Full Tensor:
                 20.78361475            0.22344649            0.29483511
                 -0.14475479           27.25141454          -12.18615639
                  0.62843611          -12.37344577           30.65549861
   paramagnetic (undisturbed density) part of shielding tensor (SOILP)
      Trace =      5.07901323
      Full Tensor:
                  5.82957520            0.62030922            0.07947028
                  1.02241559            5.66357298            4.33935739
                 -0.60140876            6.21115275            3.74389153
   paramagnetic (disturbed density) part of shielding tensor   (SOI)
      Trace =     -0.74072643
      Full Tensor:
                  4.90121397           -2.24159852            0.07937020
                 -3.63978234           -3.19347252            4.84142466
                  0.36300032            1.81442545           -3.92992073
   total shielding tensor
      Trace =     30.56846277
      Full Tensor:
                 31.51440392           -1.39784281            0.45367559
                 -2.76212154           29.72151499           -3.00537435
                  0.39002768           -4.34786757           30.46946941


  -------------------
  -- ATOM  H    10 --
  -------------------

   ISOTROPIC:     30.56846277          ANISOTROPIC:      7.51653952

   diamagnetic (undisturbed density) part of shielding tensor  (EFS)
      Trace =     26.23017596
      Full Tensor:
                 20.78361475            0.22344649           -0.29483511
                 -0.14475479           27.25141454           12.18615639
                 -0.62843611           12.37344577           30.65549861
   paramagnetic (undisturbed density) part of shielding tensor (SOILP)
      Trace =      5.07901323
      Full Tensor:
                  5.82957520            0.62030922           -0.07947028
                  1.02241559            5.66357298           -4.33935739
                  0.60140876           -6.21115275            3.74389153
   paramagnetic (disturbed density) part of shielding tensor   (SOI)
      Trace =     -0.74072643
      Full Tensor:
                  4.90121397           -2.24159852           -0.07937020
                 -3.63978234           -3.19347252           -4.84142466
                 -0.36300032           -1.81442545           -3.92992073
   total shielding tensor
      Trace =     30.56846277
      Full Tensor:
                 31.51440392           -1.39784281           -0.45367559
                 -2.76212154           29.72151499            3.00537435
                 -0.39002768            4.34786757           30.46946941


  -------------------
  -- ATOM  H    11 --
  -------------------

   ISOTROPIC:     31.20688690          ANISOTROPIC:      9.12614176

   diamagnetic (undisturbed density) part of shielding tensor  (EFS)
      Trace =     25.93655163
      Full Tensor:
                 22.08061990           -2.38859487           -3.43308808
                 -2.57412676           25.15296670           10.86213966
                 -3.59023398           10.66035466           30.57606828
   paramagnetic (undisturbed density) part of shielding tensor (SOILP)
      Trace =      3.43187161
      Full Tensor:
                  6.81060825            0.53808185            0.43745181
                 -0.90352811            3.04239344           -4.48991496
                  0.73189153           -3.40504804            0.44261314
   paramagnetic (disturbed density) part of shielding tensor   (SOI)
      Trace =      1.83846366
      Full Tensor:
                  1.30059165           -0.64682006            1.20087438
                  2.13105611            2.80532138           -2.12172615
                  0.54248968           -2.88914246            1.40947797
   total shielding tensor
      Trace =     31.20688690
      Full Tensor:
                 30.19181980           -2.49733308           -1.79476188
                 -1.34659876           31.00068152            4.25049855
                 -2.31585277            4.36616416           32.42815939


  -------------------
  -- ATOM  H    12 --
  -------------------

   ISOTROPIC:     31.85570555          ANISOTROPIC:     10.01672553

   diamagnetic (undisturbed density) part of shielding tensor  (EFS)
      Trace =     26.42874882
      Full Tensor:
                 35.72753857           10.47086038           -0.00000000
                 10.35890527           26.34182073           -0.00000000
                  0.00000000           -0.00000000           17.21688715
   paramagnetic (undisturbed density) part of shielding tensor (SOILP)
      Trace =      3.01085036
      Full Tensor:
                  1.55029440           -3.25948014           -0.00000000
                 -3.89142645            0.58245574           -0.00000000
                 -0.00000000            0.00000000            6.89980094
   paramagnetic (disturbed density) part of shielding tensor   (SOI)
      Trace =      2.41610638
      Full Tensor:
                 -0.40784605           -3.98378275            0.00000000
                 -3.27671848            4.49523929            0.00000000
                  0.00000000           -0.00000000            3.16092589
   total shielding tensor
      Trace =     31.85570555
      Full Tensor:
                 36.86998692            3.22759749            0.00000000
                  3.19076034           31.41951576            0.00000000
                  0.00000000           -0.00000000           27.27761398


  -------------------
  -- ATOM  H    13 --
  -------------------

   ISOTROPIC:     31.20688690          ANISOTROPIC:      9.12614176

   diamagnetic (undisturbed density) part of shielding tensor  (EFS)
      Trace =     25.93655163
      Full Tensor:
                 22.08061990           -2.38859487            3.43308808
                 -2.57412676           25.15296670          -10.86213966
                  3.59023398          -10.66035466           30.57606828
   paramagnetic (undisturbed density) part of shielding tensor (SOILP)
      Trace =      3.43187161
      Full Tensor:
                  6.81060825            0.53808185           -0.43745181
                 -0.90352811            3.04239344            4.48991496
                 -0.73189153            3.40504804            0.44261314
   paramagnetic (disturbed density) part of shielding tensor   (SOI)
      Trace =      1.83846366
      Full Tensor:
                  1.30059165           -0.64682006           -1.20087438
                  2.13105611            2.80532138            2.12172615
                 -0.54248968            2.88914246            1.40947797
   total shielding tensor
      Trace =     31.20688690
      Full Tensor:
                 30.19181980           -2.49733308            1.79476188
                 -1.34659876           31.00068152           -4.25049855
                  2.31585277           -4.36616416           32.42815939

  Summary of detailed contributions
 ===================================

    ATOM        DIAMAGNETIC     PARAMAGNETIC (P)     PARAMAGNETIC (d/dB P)
  --------------------------------------------------------------------------
    C     1     256.99411868      -6.55265133          -78.50331259
    C     2     249.86867422      -7.26459028         -250.63512158
    C     3     255.72384100      -7.58175043          -79.85874685
    C     4     255.14418078     -11.54453420          -53.97811609
    O     5     398.80477233      -0.94964796         -704.96898350
    H     6      25.87907899       4.11038408            0.75384266
    H     7      25.87907899       4.11038408            0.75384266
    H     8      25.60874783       3.81611101            0.97174093
    H     9      26.23017596       5.07901323           -0.74072643
    H    10      26.23017596       5.07901323           -0.74072643
    H    11      25.93655163       3.43187161            1.83846366
    H    12      26.42874882       3.01085036            2.41610638
    H    13      25.93655163       3.43187161            1.83846366

  Summary
 =========

       ATOM           ISOTROPIC        ANISOTROPIC       REL. SHIFTS
------------------------------------------------------------------------
   Atom C     1     171.93815475       45.59316260       29.78925354
   Atom C     2      -8.03103764      210.11204576      209.75844593
   Atom C     3     168.28334373       37.63516015       33.44406456
   Atom C     4     189.62153048        8.21509582       12.10587781
   Atom O     5    -307.11385913     1092.85513961
   Atom H     6      30.74330574        5.66452630        2.15974312
   Atom H     7      30.74330574        5.66452630        2.15974312
   Atom H     8      30.39659976        7.75575606        2.50644910
   Atom H     9      30.56846277        7.51653952        2.33458609
   Atom H    10      30.56846277        7.51653952        2.33458609
   Atom H    11      31.20688690        9.12614176        1.69616196
   Atom H    12      31.85570555       10.01672553        1.04734331
   Atom H    13      31.20688690        9.12614176        1.69616196


 --- SHIFTS DONE ---


      ======================================================== 
      =   cite:  - C. Ochsenfeld, J. Kussmann, F. Koziol,    = 
      =            Angew. Chem. Int. Ed. 43, 4485 (2004)     = 
      =          - J. Kussmann and C. Ochsenfeld,            = 
      =            J. Chem. Phys. 127, 054103 (2007)         = 
      ======================================================== 


WARNING: no symmetry was used (preliminary integrals)

 D-SCF time:  CPU 38.05 s  wall 38.32 s 

Symmetry turned off temporarily
 Analysis of SCF Wavefunction

 --------------------------------------------------------------
             Orbital Energies (a.u.) and Symmetries
 --------------------------------------------------------------

 Alpha MOs, Restricted
 -- Occupied --                  
-20.552 -11.332 -11.240 -11.234 -11.217  -1.372  -1.065  -1.002
  1 A'    2 A'    3 A'    4 A'    5 A'    6 A'    7 A'    8 A'                 
 -0.874  -0.729  -0.651  -0.644  -0.617  -0.587  -0.563  -0.514
  9 A'   10 A'   11 A'    1 A"   12 A'    2 A"   13 A'   14 A'                 
 -0.510  -0.505  -0.477  -0.408
 15 A'    3 A"    4 A"   16 A'                                                 
 -- Virtual --                   
  0.159   0.219   0.262   0.296   0.301   0.311   0.323   0.327
  5 A"   17 A'   18 A'    6 A"   19 A'   20 A'   21 A'    7 A"                 
  0.347   0.393   0.410   0.471   0.508   0.684   0.743   0.761
  8 A"   22 A'   23 A'   24 A'   25 A'   26 A'    9 A"   27 A'                 
  0.767   0.813   0.826   0.851   0.908   0.955   1.012   1.029
 10 A"   28 A'   29 A'   11 A"   30 A'   31 A'   32 A'   12 A"                 
  1.040   1.108   1.113   1.121   1.160   1.170   1.184   1.195
 33 A'   34 A'   13 A"   35 A'   14 A"   36 A'   15 A"   37 A'                 
  1.207   1.219   1.246   1.324   1.344   1.407   1.651   1.672
 38 A'   39 A'   40 A'   41 A'   16 A"   42 A'   17 A"   43 A'                 
  1.688   1.774   1.852   1.955   2.076   2.082   2.099   2.174
 18 A"   44 A'   45 A'   46 A'   19 A"   47 A'   48 A'   20 A"                 
  2.196   2.222   2.286   2.292   2.405   2.412   2.510   2.571
 49 A'   50 A'   51 A'   21 A"   52 A'   22 A"   53 A'   23 A"                 
  2.628   2.651   2.661   2.748   2.842   2.905   2.937   3.134
 54 A'   24 A"   55 A'   25 A"   56 A'   57 A'   26 A"   58 A'                 
  3.332   3.367   4.367   4.527   4.669   4.784   4.921
 59 A'   60 A'   61 A'   62 A'   63 A'   64 A'   65 A'                         

 Beta MOs, Restricted
 -- Occupied --                  
-20.552 -11.332 -11.240 -11.234 -11.217  -1.372  -1.065  -1.002
  1 A'    2 A'    3 A'    4 A'    5 A'    6 A'    7 A'    8 A'                 
 -0.874  -0.729  -0.651  -0.644  -0.617  -0.587  -0.563  -0.514
  9 A'   10 A'   11 A'    1 A"   12 A'    2 A"   13 A'   14 A'                 
 -0.510  -0.505  -0.477  -0.408
 15 A'    3 A"    4 A"   16 A'                                                 
 -- Virtual --                   
  0.159   0.219   0.262   0.296   0.301   0.311   0.323   0.327
  5 A"   17 A'   18 A'    6 A"   19 A'   20 A'   21 A'    7 A"                 
  0.347   0.393   0.410   0.471   0.508   0.684   0.743   0.761
  8 A"   22 A'   23 A'   24 A'   25 A'   26 A'    9 A"   27 A'                 
  0.767   0.813   0.826   0.851   0.908   0.955   1.012   1.029
 10 A"   28 A'   29 A'   11 A"   30 A'   31 A'   32 A'   12 A"                 
  1.040   1.108   1.113   1.121   1.160   1.170   1.184   1.195
 33 A'   34 A'   13 A"   35 A'   14 A"   36 A'   15 A"   37 A'                 
  1.207   1.219   1.246   1.324   1.344   1.407   1.651   1.672
 38 A'   39 A'   40 A'   41 A'   16 A"   42 A'   17 A"   43 A'                 
  1.688   1.774   1.852   1.955   2.076   2.082   2.099   2.174
 18 A"   44 A'   45 A'   46 A'   19 A"   47 A'   48 A'   20 A"                 
  2.196   2.222   2.286   2.292   2.405   2.412   2.510   2.571
 49 A'   50 A'   51 A'   21 A"   52 A'   22 A"   53 A'   23 A"                 
  2.628   2.651   2.661   2.748   2.842   2.905   2.937   3.134
 54 A'   24 A"   55 A'   25 A"   56 A'   57 A'   26 A"   58 A'                 
  3.332   3.367   4.367   4.527   4.669   4.784   4.921
 59 A'   60 A'   61 A'   62 A'   63 A'   64 A'   65 A'                         
 --------------------------------------------------------------

          Ground-State Mulliken Net Atomic Charges

     Atom                 Charge (a.u.)
  ----------------------------------------
      1 C                    -0.567711
      2 C                     0.528961
      3 C                    -0.407871
      4 C                    -0.469046
      5 O                    -0.544836
      6 H                     0.183966
      7 H                     0.183966
      8 H                     0.208631
      9 H                     0.184344
     10 H                     0.184344
     11 H                     0.178683
     12 H                     0.157885
     13 H                     0.178683
  ----------------------------------------
  Sum of atomic charges =     0.000000

The Stewart charges should reproduce the multipoles up to L =  3
The Stewart charges reproduce the multipole moments up to L =  3

         Stewart Net Atomic Charges

     Atom                 Charge (a.u.)
  ----------------------------------------
      1 C                    -4.391026
      2 C                     1.333426
      3 C                     1.843687
      4 C                    -2.290837
      5 O                    -0.623866
      6 H                     1.120242
      7 H                     1.120242
      8 H                     1.182466
      9 H                    -0.404498
     10 H                    -0.404498
     11 H                     0.488624
     12 H                     0.537413
     13 H                     0.488624
  ----------------------------------------
  Sum of atomic charges =     0.000000

   The traceless molecular multipole moments
 -----------------------------------------------------------------
                       Multipole Moments
 -----------------------------------------------------------------
    Charge (ESU x 10^10)
                           0.0000
    Dipole Moment (Debye)
      z                    0.0000    x                0.2251
      y                   -3.1837    Total            3.1916
    Quadrupole Moments (Debye-Ang)
      zz                   2.7265
      xz                   0.0000    yz               0.0000
      xx-yy                4.9547    xy               2.1080
    Octapole Moments (Debye-Ang^2)
      zzz                  0.0000
      xzz                 -0.0752    yzz              2.1842
      xxz-yyz              0.0000    xyz              0.0000
      xxx-xyy              7.6721    xxy-yyy          4.4542
    Hexadecapole Moments (Debye-Ang^3)
      zzzz               -12.2335
      xzzz                 0.0000    yzzz             0.0000
      xxzz-yyzz          -14.8880    xyzz            18.6354
      xxxz-xyyz            0.0000    xxyz-yyyz        0.0000
      xxxx-xxyy+yyyy      -6.9599    xxxy-xyyy      -21.8514
 -----------------------------------------------------------------

   Multipole moments of the Stewart Charges
 -----------------------------------------------------------------
                       Multipole Moments
 -----------------------------------------------------------------
    Charge (ESU x 10^10)
                           0.0000
    Dipole Moment (Debye)
      z                   -0.0000    x                0.2251
      y                   -3.1837    Total            3.1916
    Quadrupole Moments (Debye-Ang)
      zz                   2.7265
      xz                   0.0000    yz               0.0000
      xx-yy                4.9547    xy               2.1080
    Octapole Moments (Debye-Ang^2)
      zzz                  0.0000
      xzz                 -0.0752    yzz              2.1842
      xxz-yyz              0.0000    xyz             -0.0000
      xxx-xyy              7.6721    xxy-yyy          4.4542
    Hexadecapole Moments (Debye-Ang^3)
      zzzz               -17.2207
      xzzz                 0.0000    yzzz            -0.0000
      xxzz-yyzz          -14.2457    xyzz           164.4938
      xxxz-xyyz            0.0000    xxyz-yyyz        0.0000
      xxxx-xxyy+yyyy     -39.9770    xxxy-xyyy     -150.1190
 -----------------------------------------------------------------

 -----------------------------------------------------------------
                    Cartesian Multipole Moments
 -----------------------------------------------------------------
    Charge (ESU x 10^10)
                 0.0000
    Dipole Moment (Debye)
         X       0.2251      Y      -3.1837      Z       0.0000
       Tot       3.1916
    Quadrupole Moments (Debye-Ang)
        XX     -30.3372     XY      -1.2171     YY     -36.0584
        XZ      -0.0000     YZ       0.0000     ZZ     -30.4713
    Octapole Moments (Debye-Ang^2)
       XXX       5.5658    XXY       1.1233    XYY      -1.3796
       YYY      -2.2644    XXZ       0.0000    XYZ      -0.0000
       YYZ       0.0000    XZZ       1.0159    YZZ       0.6064
       ZZZ       0.0000
    Hexadecapole Moments (Debye-Ang^3)
      XXXX    -436.6524   XXXY       6.7008   XXYY     -99.0941
      XYYY      -0.6863   YYYY    -167.3237   XXXZ      -0.0000
      XXYZ       0.0000   XYYZ      -0.0000   YYYZ       0.0000
      XXZZ     -80.9093   XYZZ      -1.7756   YYZZ     -31.5824
      XZZZ      -0.0000   YZZZ       0.0000   ZZZZ     -48.8971
 -----------------------------------------------------------------
 No analytic derivatives required
Entering efpman

                      DISTRIBUTED MULTIPOLE ANALYSIS

                         COORDINATES AND CHARGES

    N         X              Y              Z           CHARGE
    0   1.8710340318  -0.5135286961  -0.0000000000  -5.7976362251
    1   0.5221244471   0.1570512161  -0.0000000000  -4.8788368925
    2  -0.6827146805  -0.7662303318   0.0000000000  -5.8549961725
    3  -1.9986929148  -0.0098565933   0.0000000000  -5.6817947708
    4   0.4229537720   1.3831127449  -0.0000000000  -8.1972775520
    5   1.9739988595  -1.1296989515  -0.8962763000  -0.7529685874
    6   1.9739988595  -1.1296989515   0.8962763000  -0.7529685874
    7   2.6600096763   0.2445413470  -0.0000000000  -0.7354403400
    8  -0.6258283846  -1.4018401200   0.8896585000  -0.7707493110
    9  -0.6258283846  -1.4018401200  -0.8896585000  -0.7707493110
   10  -2.0850620659   0.6292171409   0.8847773000  -0.7617771723
   11  -2.8403619720  -0.7094130146   0.0000000000  -0.7867731745
   12  -2.0850620659   0.6292171409  -0.8847773000  -0.7617771723
   13   1.1965792394  -0.1782387400  -0.0000000000  -0.1368082203
   14   1.9225164457  -0.8216138238  -0.4481381500  -0.3380978333
   15   1.9225164457  -0.8216138238   0.4481381500  -0.3380978333
   16   2.2655218540  -0.1344936745  -0.0000000000  -0.3039047651
   17  -0.0802951167  -0.3045895578   0.0000000000   0.1142287985
   18   0.4725391095   0.7700819805  -0.0000000000  -0.8206239679
   19  -1.3407037977  -0.3880434625   0.0000000000   0.0348912391
   20  -0.6542715325  -1.0840352259   0.4448292500  -0.3429044814
   21  -0.6542715325  -1.0840352259  -0.4448292500  -0.3429044814
   22  -2.0418774903   0.3096802738   0.4423886500  -0.3284040755
   23  -2.4195274434  -0.3596348040   0.0000000000  -0.3652250355
   24  -2.0418774903   0.3096802738  -0.4423886500  -0.3284040755
   25   1.8710340318  -0.5135286961  -0.0000000000   6.0000000000
   26   0.5221244471   0.1570512161  -0.0000000000   6.0000000000
   27  -0.6827146805  -0.7662303318   0.0000000000   6.0000000000
   28  -1.9986929148  -0.0098565933   0.0000000000   6.0000000000
   29   0.4229537720   1.3831127449  -0.0000000000   8.0000000000
   30   1.9739988595  -1.1296989515  -0.8962763000   1.0000000000
   31   1.9739988595  -1.1296989515   0.8962763000   1.0000000000
   32   2.6600096763   0.2445413470  -0.0000000000   1.0000000000
   33  -0.6258283846  -1.4018401200   0.8896585000   1.0000000000
   34  -0.6258283846  -1.4018401200  -0.8896585000   1.0000000000
   35  -2.0850620659   0.6292171409   0.8847773000   1.0000000000
   36  -2.8403619720  -0.7094130146   0.0000000000   1.0000000000
   37  -2.0850620659   0.6292171409  -0.8847773000   1.0000000000

                                 DIPOLES

    N        DX             DY             DZ
    0   0.0519399594  -0.0481666048   0.0000000000
    1  -0.0041334475   0.6120957067  -0.0000000000
    2  -0.1230479085  -0.0688139867  -0.0000000000
    3   0.0528424909  -0.0292398452  -0.0000000000
    4   0.0810577107  -0.4232276619   0.0000000000
    5   0.0085099292  -0.0228264916  -0.0360400820
    6   0.0085099292  -0.0228264916   0.0360400820
    7   0.0346212730   0.0325873879  -0.0000000000
    8  -0.0006474049  -0.0266373931   0.0351125057
    9  -0.0006474049  -0.0266373931  -0.0351125057
   10  -0.0032192600   0.0289484788   0.0342751392
   11  -0.0361805472  -0.0256435569   0.0000000000
   12  -0.0032192600   0.0289484788  -0.0342751392
   13   0.1259582399  -0.0540346972  -0.0000000000
   14  -0.0148264543   0.1479588681   0.2148089472
   15  -0.0148264543   0.1479588681  -0.2148089472
   16  -0.1863260177  -0.1832171168  -0.0000000000
   17   0.0787152609  -0.1261957666   0.0000000000
   18  -0.0370481112  -0.0287789996  -0.0000000000
   19  -0.0680712079  -0.0251757843  -0.0000000000
   20  -0.0161569691   0.1462210115  -0.2252272270
   21  -0.0161569691   0.1462210115   0.2252272270
   22  -0.0195817677  -0.1545462451  -0.2268071130
   23   0.1795337338   0.1821990359   0.0000000000
   24  -0.0195817677  -0.1545462451   0.2268071130

                               QUADRUPOLES

    N        QXX            QXY            QXZ            QYY
    0   0.0548684574  -0.1273035588   0.0000000000  -0.0570614012
    1  -0.4057246477  -0.0712680539   0.0000000000   0.1695275154
    2   0.0631505420   0.0094583139  -0.0000000000   0.0097154687
    3   0.1241928219  -0.1141312687   0.0000000000   0.0239868955
    4  -0.6613008698  -0.1150869807   0.0000000000   0.4819724216
    5  -0.0038759874   0.0007920259   0.0016607792   0.0017886896
    6  -0.0038759874   0.0007920259  -0.0016607792   0.0017886896
    7   0.0009427325   0.0012786786   0.0000000000   0.0014909382
    8  -0.0028291647  -0.0015234947   0.0013184022  -0.0003007233
    9  -0.0028291647  -0.0015234947  -0.0013184022  -0.0003007233
   10  -0.0000902189  -0.0001386615  -0.0004003243  -0.0026333374
   11  -0.0010093437   0.0015274100   0.0000000000   0.0026260530
   12  -0.0000902189  -0.0001386615   0.0004003243  -0.0026333374
   13   0.0312280975  -0.0329966516   0.0000000000   0.0306889698
   14  -0.0071640746  -0.0005187779   0.0034660721  -0.0011703857
   15  -0.0071640746  -0.0005187779  -0.0034660721  -0.0011703857
   16  -0.0217477703  -0.0012712138  -0.0000000000   0.0018351887
   17   0.1955899665  -0.1737922263  -0.0000000000  -0.0384745934
   18   0.3193596446  -0.0435924254   0.0000000000   0.4148930466
   19  -0.0206468536  -0.0945081577   0.0000000000  -0.0648398812
   20  -0.0076701136  -0.0000540721  -0.0024383643  -0.0035242670
   21  -0.0076701136  -0.0000540721   0.0024383643  -0.0035242670
   22   0.0040174338   0.0240476148   0.0026684197   0.0020581887
   23  -0.0008090729   0.0024808389   0.0000000000   0.0036737802
   24   0.0040174338   0.0240476148  -0.0026684197   0.0020581887

    N        QYZ            QZZ
    0   0.0000000000   0.0021929438
    1  -0.0000000000   0.2361971323
    2   0.0000000000  -0.0728660107
    3  -0.0000000000  -0.1481797174
    4  -0.0000000000   0.1793284482
    5   0.0030697082   0.0020872978
    6  -0.0030697082   0.0020872978
    7  -0.0000000000  -0.0024336707
    8  -0.0025459506   0.0031298880
    9   0.0025459506   0.0031298880
   10   0.0015394308   0.0027235563
   11   0.0000000000  -0.0016167093
   12  -0.0015394308   0.0027235563
   13   0.0000000000  -0.0619170672
   14  -0.0067277614   0.0083344602
   15   0.0067277614   0.0083344602
   16   0.0000000000   0.0199125815
   17  -0.0000000000  -0.1571153731
   18  -0.0000000000  -0.7342526912
   19  -0.0000000000   0.0854867348
   20   0.0067347260   0.0111943806
   21  -0.0067347260   0.0111943806
   22  -0.0075341273  -0.0060756224
   23   0.0000000000  -0.0028647073
   24   0.0075341273  -0.0060756224

                                OCTUPOLES

    N       OXXX           OXXY           OXXZ           OXYY
    0   0.1935755998  -0.3652872077  -0.0000000000  -0.1469737001
    1  -0.0570605336   0.2479569071   0.0000000000   0.0513851233
    2   0.0809105355  -0.3543533398   0.0000000000  -0.0498088342
    3  -0.1304356500   0.3507878818  -0.0000000000   0.1011301889
    4   0.0444067113   0.0255473386  -0.0000000000  -0.0261559787
    5   0.0050769309  -0.0021962619  -0.0043667554  -0.0023971702
    6   0.0050769309  -0.0021962619   0.0043667554  -0.0023971702
    7   0.0011346730  -0.0043300160  -0.0000000000  -0.0060247607
    8  -0.0032066108  -0.0033941581   0.0039655351   0.0017437448
    9  -0.0032066108  -0.0033941581  -0.0039655351   0.0017437448
   10   0.0000784245   0.0024582215   0.0033518521  -0.0001298985
   11  -0.0011226033   0.0047927547   0.0000000000   0.0048992905
   12   0.0000784245   0.0024582215  -0.0033518521  -0.0001298985
   13  -0.0232323879   0.1108181934  -0.0000000000   0.0433282384
   14  -0.0009217885   0.0029440344  -0.0083509501   0.0013084560
   15  -0.0009217885   0.0029440344   0.0083509501   0.0013084560
   16  -0.0061235124   0.0091361015   0.0000000000  -0.0010790056
   17   0.1903518645   0.1351292049   0.0000000000  -0.1520334299
   18   0.0722274892  -0.2277862388  -0.0000000000  -0.0909283892
   19   0.0247456119  -0.0646218478   0.0000000000  -0.0313004584
   20  -0.0002058578   0.0030902244   0.0104284352   0.0007900022
   21  -0.0002058578   0.0030902244  -0.0104284352   0.0007900022
   22   0.0011453606  -0.0255275930   0.0085503072  -0.0150709993
   23  -0.0001406464   0.0031868392  -0.0000000000   0.0021970807
   24   0.0011453606  -0.0255275930  -0.0085503072  -0.0150709993

    N       OXYZ           OXZZ           OYYY           OYYZ
    0  -0.0000000000  -0.0466018997  -0.0165559576   0.0000000000
    1   0.0000000000   0.0056754103  -0.1766841335   0.0000000000
    2   0.0000000000  -0.0311017013  -0.0208413854  -0.0000000000
    3   0.0000000000   0.0293054610   0.0443896531   0.0000000000
    4  -0.0000000000  -0.0182507326  -0.1060350374   0.0000000000
    5  -0.0003016485  -0.0026797606  -0.0047783603   0.0031785057
    6   0.0003016485  -0.0026797606  -0.0047783603  -0.0031785057
    7   0.0000000000   0.0048900877   0.0008158721  -0.0000000000
    8   0.0011294933   0.0014628660  -0.0042191600  -0.0024626317
    9  -0.0011294933   0.0014628660  -0.0042191600   0.0024626317
   10   0.0006552371   0.0000514741   0.0047302386  -0.0017151020
   11   0.0000000000  -0.0037766872  -0.0013788790   0.0000000000
   12  -0.0006552371   0.0000514741   0.0047302386   0.0017151020
   13  -0.0000000000  -0.0200958505   0.0379992900  -0.0000000000
   14  -0.0026437417  -0.0003866675   0.0040411695   0.0052878230
   15   0.0026437417  -0.0003866675   0.0040411695  -0.0052878230
   16   0.0000000000   0.0072025180   0.0216908107  -0.0000000000
   17  -0.0000000000  -0.0383184346   0.0002444644   0.0000000000
   18  -0.0000000000   0.0187008999   0.2734546607  -0.0000000000
   19   0.0000000000   0.0065548465   0.0775251763  -0.0000000000
   20   0.0017742520  -0.0005841444   0.0044330152  -0.0076800790
   21  -0.0017742520  -0.0005841444   0.0044330152   0.0076800790
   22   0.0018450323   0.0139256387   0.0066526426  -0.0067956429
   23  -0.0000000000  -0.0020564343  -0.0036402887   0.0000000000
   24  -0.0018450323   0.0139256387   0.0066526426   0.0067956429

    N       OYZZ           OZZZ
    0   0.3818431654   0.0000000000
    1  -0.0712727736  -0.0000000000
    2   0.3751947252  -0.0000000000
    3  -0.3951775350   0.0000000000
    4   0.0804876988   0.0000000000
    5   0.0069746222   0.0011882497
    6   0.0069746222  -0.0011882497
    7   0.0035141439   0.0000000000
    8   0.0076133181  -0.0015029034
    9   0.0076133181   0.0015029034
   10  -0.0071884602  -0.0016367502
   11  -0.0034138757  -0.0000000000
   12  -0.0071884602   0.0016367502
   13  -0.1488174834   0.0000000000
   14  -0.0069852040   0.0030631271
   15  -0.0069852040  -0.0030631271
   16  -0.0308269122  -0.0000000000
   17  -0.1353736693  -0.0000000000
   18  -0.0456684219   0.0000000000
   19  -0.0129033285   0.0000000000
   20  -0.0075232396  -0.0027483561
   21  -0.0075232396   0.0027483561
   22   0.0188749504  -0.0017546643
   23   0.0004534496   0.0000000000
   24   0.0188749504   0.0017546643
 Total charge: -0.000000
Leaving efpman
 JobOver = TRUE
Archival summary:
1\1\chemsrv2.anu.edu.au\NMR\HF\6-31G*\148\WedApr3016:18:272014WedApr3016:18:272014\0\\#,NMR,HF,6-31G*,\\0,1\C\O,1,1.23007\C,1,1.5064,2,121.058\H,3,1.09251,1,109.6,2,-119.443,0\H,3,1.09251,1,109.6,2,119.443,0\H,3,1.09414,1,109.711,2,0,0\C,1,1.51792,2,122.839,3,-180,0\H,7,1.09486,1,108.172,2,-121.215,0\H,7,1.09486,1,108.172,2,121.215,0\C,7,1.51786,1,112.648,2,-0,0\H,10,1.09443,7,110.38,1,-180,0\H,10,1.09485,7,111.055,1,-59.9899,0\H,10,1.09485,7,111.055,1,59.9899,0\\HF=-230.994373\\@

 Total job time:  48.07s(wall), 46.07s(cpu) 
 Wed Apr 30 16:18:27 2014

        *************************************************************
        *                                                           *
        *  Thank you very much for using Q-Chem.  Have a nice day.  *
        *                                                           *
        *************************************************************


*** MISSION COMPLETED -- STARFLEET OUT ***

