Jobname.Temp
SP        R                             6-31G(d)            
Number of atoms                            I                3
Charge                                     I                0
Multiplicity                               I                1
Number of electrons                        I               10
Number of alpha electrons                  I                5
Number of beta electrons                   I                5
Atomic numbers                             I   N=           3
           8           1           1
Current cartesian coordinates              R   N=           9
 -2.77555756E-17  2.12850618E-17  2.19815368E-01 -1.41947741E+00 -1.52550785E-16
 -8.79261471E-01  1.41947741E+00 -1.77297099E-17 -8.79261471E-01
Nuclear charges                            R   N=           3
  8.00000000E+00  1.00000000E+00  1.00000000E+00
Number of basis functions                  I               19
Number of contracted shells                I                8
Number of primitive shells                 I               19
Highest angular momentum                   I                2
Largest degree of contraction              I                6
Shell types                                I   N=           8
           0          -1          -1           2           0           0
           0           0
Number of primitives per shell             I   N=           8
           6           3           1           1           3           1
           3           1
Shell to atom map                          I   N=           8
           1           1           1           1           2           2
           3           3
Primitive exponents                        R   N=          19
  5.48467170E+03  8.25234950E+02  1.88046960E+02  5.29645000E+01  1.68975700E+01
  5.79963530E+00  1.55396160E+01  3.59993360E+00  1.01376180E+00  2.70005800E-01
  8.00000000E-01  1.87311370E+01  2.82539370E+00  6.40121700E-01  1.61277800E-01
  1.87311370E+01  2.82539370E+00  6.40121700E-01  1.61277800E-01
Contraction coefficients                   R   N=          19
  1.83109981E-03  1.39500985E-02  6.84450927E-02  2.32714275E-01  4.70192950E-01
  3.58520862E-01 -1.10777504E-01 -1.48026305E-01  1.13076704E+00  1.00000000E+00
  1.00000000E+00  3.34945995E-02  2.34726947E-01  8.13757318E-01  1.00000000E+00
  3.34945995E-02  2.34726947E-01  8.13757318E-01  1.00000000E+00
P(S=P) Contraction coefficients            R   N=          19
  0.00000000E+00  0.00000000E+00  0.00000000E+00  0.00000000E+00  0.00000000E+00
  0.00000000E+00  7.08742995E-02  3.39752798E-01  7.27158595E-01  1.00000000E+00
  0.00000000E+00  0.00000000E+00  0.00000000E+00  0.00000000E+00  0.00000000E+00
  0.00000000E+00  0.00000000E+00  0.00000000E+00  0.00000000E+00
Coordinates of each shell                  R   N=          24
 -2.77555756E-17  2.12850618E-17  2.19815368E-01 -2.77555756E-17  2.12850618E-17
  2.19815368E-01 -2.77555756E-17  2.12850618E-17  2.19815368E-01 -2.77555756E-17
  2.12850618E-17  2.19815368E-01 -1.41947741E+00 -1.52550785E-16 -8.79261471E-01
 -1.41947741E+00 -1.52550785E-16 -8.79261471E-01  1.41947741E+00 -1.77297099E-17
 -8.79261471E-01  1.41947741E+00 -1.77297099E-17 -8.79261471E-01
Overlap Matrix                             R   N=         190
  1.00000000E+00  2.33689906E-01  1.00000000E+00  0.00000000E+00  0.00000000E+00
  1.00000000E+00 -2.62520758E-34 -2.40152943E-33  0.00000000E+00  1.00000000E+00
 -2.81491137E-17 -5.19195494E-17  0.00000000E+00  4.86723712E-49  1.00000000E+00
  1.67279760E-01  7.63640773E-01  0.00000000E+00 -3.32035643E-33 -2.78613177E-17
  1.00000000E+00  0.00000000E+00  0.00000000E+00  5.01520641E-01  0.00000000E+00
  0.00000000E+00  0.00000000E+00  1.00000000E+00  4.02165028E-35 -2.66469367E-33
  0.00000000E+00  5.01520641E-01  9.57748515E-50  0.00000000E+00  0.00000000E+00
  1.00000000E+00  1.68362391E-18 -2.44229206E-17  0.00000000E+00  9.57748515E-50
  5.01520641E-01  0.00000000E+00  0.00000000E+00  0.00000000E+00  1.00000000E+00
  3.35315380E-02  5.47065748E-01  0.00000000E+00 -1.68140317E-33  2.48591681E-19
  6.99014733E-01  0.00000000E+00  0.00000000E+00 -2.01629053E-17  1.00000000E+00
  3.35315380E-02  5.47065748E-01  0.00000000E+00 -5.04420950E-33  2.48591681E-19
  6.99014733E-01  0.00000000E+00  0.00000000E+00 -2.01629053E-17  3.33333333E-01
  1.00000000E+00  3.35315380E-02  5.47065748E-01  0.00000000E+00 -1.68140317E-33
  7.45775044E-19  6.99014733E-01  0.00000000E+00  0.00000000E+00 -6.04887159E-17
  3.33333333E-01  3.33333333E-01  1.00000000E+00  0.00000000E+00  0.00000000E+00
 -2.91227571E-33  0.00000000E+00  0.00000000E+00  0.00000000E+00  0.00000000E+00
  0.00000000E+00  0.00000000E+00  0.00000000E+00  0.00000000E+00  0.00000000E+00
  1.00000000E+00  0.00000000E+00  0.00000000E+00  4.30573422E-19  0.00000000E+00
  0.00000000E+00  0.00000000E+00 -3.49231764E-17  0.00000000E+00  0.00000000E+00
  0.00000000E+00  0.00000000E+00  0.00000000E+00  0.00000000E+00  1.00000000E+00
  7.58912025E-51 -8.59591648E-51  0.00000000E+00  4.30573422E-19 -2.91227571E-33
  0.00000000E+00  0.00000000E+00 -3.49231764E-17  0.00000000E+00  0.00000000E+00
  0.00000000E+00  0.00000000E+00  0.00000000E+00  0.00000000E+00  1.00000000E+00
  3.61041841E-02  2.54252180E-01 -2.31083810E-01 -2.82996048E-17 -1.78924203E-01
  4.31913570E-01 -4.62703507E-01 -5.66648369E-17 -3.58263334E-01  4.15148647E-01
  1.70489006E-01  3.17165823E-01  5.18959915E-17  3.28112317E-01  4.01821698E-17
  1.00000000E+00  6.95655836E-02  3.83093802E-01 -1.16768291E-01 -1.42999913E-17
 -9.04116706E-02  6.87524164E-01 -3.79266637E-01 -4.64467673E-17 -2.93659606E-01
  4.46748662E-01  4.02824534E-01  4.29157653E-01  9.31696847E-18  5.89065171E-02
  7.21396776E-18  6.58292049E-01  1.00000000E+00  3.61041841E-02  2.54252180E-01
  2.31083810E-01 -6.35140935E-18 -1.78924203E-01  4.31913570E-01  4.62703507E-01
 -1.27175477E-17 -3.58263334E-01  4.15148647E-01  1.70489006E-01  3.17165823E-01
 -1.16472540E-17 -3.28112317E-01  9.01826761E-18  5.41713139E-02  2.28474908E-01
  1.00000000E+00  6.95655836E-02  3.83093802E-01  1.16768291E-01 -3.20941227E-18
 -9.04116706E-02  6.87524164E-01  3.79266637E-01 -1.04242598E-17 -2.93659606E-01
  4.46748662E-01  4.02824534E-01  4.29157653E-01 -2.09104972E-18 -5.89065171E-02
  1.61906368E-18  2.28474908E-01  5.22086250E-01  6.58292049E-01  1.00000000E+00
Core Hamiltonian Matrix                    R   N=         190
 -3.30551182E+01 -7.36959017E+00 -9.93360005E+00  0.00000000E+00  0.00000000E+00
 -8.54885318E+00  0.00000000E+00  0.00000000E+00  0.00000000E+00 -8.43855928E+00
  2.76230432E-02  1.87771694E-01  0.00000000E+00  0.00000000E+00 -8.50468199E+00
 -5.37347855E+00 -7.39701304E+00  0.00000000E+00  0.00000000E+00  1.76859232E-01
 -7.27344122E+00  0.00000000E+00  0.00000000E+00 -3.82739938E+00  0.00000000E+00
  0.00000000E+00  0.00000000E+00 -4.79998488E+00  0.00000000E+00  0.00000000E+00
  0.00000000E+00 -3.72755504E+00  0.00000000E+00  0.00000000E+00  0.00000000E+00
 -4.57565328E+00  3.80640545E-03  1.19824717E-01  0.00000000E+00  0.00000000E+00
 -3.78741309E+00  2.47397152E-01  0.00000000E+00  0.00000000E+00 -4.71014316E+00
 -1.10179272E+00 -4.71250151E+00  0.00000000E+00  0.00000000E+00  1.22490991E-01
 -4.85436421E+00  0.00000000E+00  0.00000000E+00  1.74232949E-01 -5.59779935E+00
 -1.10036945E+00 -4.61623337E+00  0.00000000E+00  0.00000000E+00  6.47594233E-02
 -4.69096460E+00  0.00000000E+00  0.00000000E+00  7.59779000E-02 -2.50894441E+00
 -5.28581562E+00 -1.10122272E+00 -4.67394744E+00  0.00000000E+00  0.00000000E+00
  2.28889138E-01 -4.78892491E+00  0.00000000E+00  0.00000000E+00  2.86838952E-01
 -2.58838594E+00 -2.49456905E+00 -5.44965714E+00  0.00000000E+00  0.00000000E+00
  0.00000000E+00  0.00000000E+00  0.00000000E+00  0.00000000E+00  0.00000000E+00
  0.00000000E+00  0.00000000E+00  0.00000000E+00  0.00000000E+00  0.00000000E+00
 -4.32683323E+00  0.00000000E+00  0.00000000E+00  2.12160619E-01  0.00000000E+00
  0.00000000E+00  0.00000000E+00  3.01780321E-01  0.00000000E+00  0.00000000E+00
  0.00000000E+00  0.00000000E+00  0.00000000E+00  0.00000000E+00 -4.56515782E+00
  0.00000000E+00  0.00000000E+00  0.00000000E+00  1.12166611E-01  0.00000000E+00
  0.00000000E+00  0.00000000E+00  1.31597583E-01  0.00000000E+00  0.00000000E+00
  0.00000000E+00  0.00000000E+00  0.00000000E+00  0.00000000E+00 -4.28370716E+00
 -1.16586809E+00 -2.41973081E+00  1.82679182E+00 -2.26868136E-17  1.44323214E+00
 -2.95774379E+00  2.47028358E+00 -4.15952119E-17  1.94640707E+00 -2.65076312E+00
 -1.31968479E+00 -2.14687556E+00  8.89340506E-17 -1.79742633E+00  6.88600993E-17
 -5.05400869E+00 -2.23843948E+00 -3.65930694E+00  9.03093002E-01 -8.23879417E-18
  7.82431043E-01 -4.40792132E+00  1.67306626E+00 -2.03961311E-17  1.44013167E+00
 -2.97737432E+00 -2.63589143E+00 -2.86895104E+00  7.67174843E-18 -3.81957880E-01
  5.94010230E-18 -3.58789723E+00 -4.53401526E+00 -1.16586809E+00 -2.41973081E+00
 -1.82679182E+00 -5.09170504E-18  1.44323214E+00 -2.95774379E+00 -2.47028358E+00
 -9.33540308E-18  1.94640707E+00 -2.65076312E+00 -1.31968479E+00 -2.14687556E+00
 -1.99598745E-17  1.79742633E+00  1.54545861E-17 -4.82400679E-01 -1.50894635E+00
 -5.05400869E+00 -2.23843948E+00 -3.65930694E+00 -9.03093002E-01 -1.84907015E-18
  7.82431043E-01 -4.40792132E+00 -1.67306626E+00 -4.57759672E-18  1.44013167E+00
 -2.97737432E+00 -2.63589143E+00 -2.86895104E+00 -1.72180548E-18  3.81957880E-01
  1.33316425E-18 -1.50894635E+00 -2.84313801E+00 -3.58789723E+00 -4.53401526E+00
SCF Energy                                 R     -7.601070680046948E+01
Number of Excited States                   I                2
Excitation Energies                        R   N=           2
  3.55794266E-01  4.58321816E-01
Oscillator Strengths                       R   N=           2
  1.79483444E-02  1.19357562E-01
Alpha Amplitudes                           R   N=          37
 -4.02614896E-04  1.20813173E-04  1.87286545E-03 -3.46420332E-04  7.84098637E-03
  2.78043373E-03  8.81821659E-03  7.01305214E-01  1.15660190E-02  6.91607312E-02
  5.50895803E-02 -5.99737620E-03  3.20265333E-03  4.70665365E-03 -1.46242104E-04
  1.26757483E-04 -1.34439561E-04  7.65011042E-03  1.15491121E-02  5.40958085E-03
  8.66993483E-03  1.04746731E-03 -2.92163221E-04  2.75493846E-03 -7.97333600E-02
 -1.63539408E-02  2.47448786E-02  2.11828429E-03  6.96997122E-01  3.79559532E-02
  4.40094078E-02  4.03375969E-02 -1.37114003E-03 -5.90675976E-03  5.69001477E-03
  3.96703708E-02  8.29196348E-04
Alpha J Indexes                            I   N=           3
           0          14          37
Alpha I Indexes                            I   N=          37
           4          10          18          24          37          46
          52          56          59          61          63          64
          67          69           0           8          13          14
          17          19          21          22          25          27
          29          30          34          40          42          45
          47          49          50          53          55          60
          66
Beta Amplitudes                            R   N=          37
 -4.02614896E-04  1.20813173E-04  1.87286545E-03 -3.46420332E-04  7.84098637E-03
  2.78043373E-03  8.81821659E-03  7.01305214E-01  1.15660190E-02  6.91607312E-02
  5.50895803E-02 -5.99737620E-03  3.20265333E-03  4.70665365E-03 -1.46242104E-04
  1.26757483E-04 -1.34439561E-04  7.65011042E-03  1.15491121E-02  5.40958085E-03
  8.66993483E-03  1.04746731E-03 -2.92163221E-04  2.75493846E-03 -7.97333600E-02
 -1.63539408E-02  2.47448786E-02  2.11828429E-03  6.96997122E-01  3.79559532E-02
  4.40094078E-02  4.03375969E-02 -1.37114003E-03 -5.90675976E-03  5.69001477E-03
  3.96703708E-02  8.29196348E-04
Beta J Indexes                             I   N=           3
           0          14          37
Beta I Indexes                             I   N=          37
           4          10          18          24          37          46
          52          56          59          61          63          64
          67          69           0           8          13          14
          17          19          21          22          25          27
          29          30          34          40          42          45
          47          49          50          53          55          60
          66
Number of independent functions            I               19
Alpha MO coefficients                      R   N=         361
  9.94628249E-01  2.11632562E-02  6.08020578E-16 -1.72520625E-16 -1.34179265E-03
  4.11765879E-03 -5.37764278E-16 -6.71986677E-17  4.67210988E-04 -4.20311889E-03
 -3.93140792E-03 -4.08185987E-03  2.50833919E-16  1.52503878E-15 -3.92029392E-16
  3.26393076E-04 -1.98550200E-04  3.26393076E-04 -1.98550200E-04 -2.09484947E-01
  4.75649896E-01 -2.06432094E-15  5.92870586E-17 -9.50862642E-02  4.36047261E-01
 -4.99600361E-16  5.49506230E-17 -5.04051953E-02  2.64476514E-02 -1.09559044E-03
  2.16973764E-02  4.17654986E-17  1.65666092E-16 -2.90720580E-17  1.32671352E-01
  1.77309701E-03  1.32671352E-01  1.77309701E-03 -9.12464548E-16  2.11636264E-15
  5.08894077E-01 -2.52669457E-17  3.97078204E-15  3.66373598E-15  3.05142231E-01
 -6.17712536E-18  3.04617442E-15  7.87564458E-16 -7.80625564E-16 -3.29597460E-16
  1.01551171E-17 -5.12125015E-02 -7.56999397E-17 -2.31735824E-01 -1.09020745E-01
  2.31735824E-01  1.09020745E-01 -7.36394181E-02  1.65015756E-01 -4.36456427E-15
 -2.20180144E-16  5.56265027E-01  3.27015824E-01  1.52655666E-16 -1.90802138E-16
  4.03000370E-01  7.38981877E-04  1.19145611E-02 -4.66312038E-02  5.09167780E-18
  4.78783679E-16  5.28648407E-17 -1.41020511E-01 -8.36845231E-02 -1.41020511E-01
 -8.36845231E-02 -9.46806721E-17  4.61534666E-16  2.21047059E-17  6.39460411E-01
  3.81358006E-16 -9.03447878E-16 -8.09224953E-17  5.11621616E-01  1.04815110E-16
  8.21993339E-17  1.07241569E-16  1.36440662E-16 -3.97341365E-16  1.70846666E-17
 -3.43066357E-02 -2.10196455E-16  3.39217629E-16 -4.82508429E-17  2.71636629E-16
  1.00970063E-01 -5.55532792E-02 -7.03603842E-15  4.11261300E-17  2.14254362E-01
 -1.43121503E+00 -1.87627691E-14 -2.80456550E-17  5.07092819E-01  5.65371272E-02
  7.25545622E-02  4.40262660E-02 -3.54851029E-17  5.49907342E-16 -9.25527240E-17
  5.35345637E-02  1.04789811E+00  5.35345637E-02  1.04789811E+00  2.74780199E-15
 -3.05311332E-16  3.27033881E-01 -3.38158877E-17  5.30825384E-15 -3.88578059E-14
  8.37004610E-01  1.34520313E-17  1.16295862E-14  2.78943535E-15  2.58126853E-15
  2.71310752E-15  1.43035367E-16 -2.29192232E-02 -8.38140175E-17  4.83063078E-02
  1.40990619E+00 -4.83063078E-02 -1.40990619E+00 -1.00267017E-15 -2.47649123E-14
  8.73411584E-02 -9.30936757E-16 -1.97238059E-15  5.48172618E-14  6.92056423E-01
  7.92360647E-16 -2.65065747E-15 -9.35015954E-15 -8.36830605E-15 -8.90607033E-15
  2.15862359E-16  1.97247135E-01  5.05358754E-16  8.38400351E-01 -4.36533084E-01
 -8.38400351E-01  4.36533084E-01 -2.40881545E-04 -9.18933720E-01 -7.56339436E-16
 -1.14778292E-14 -4.86606461E-01  1.64278531E+00 -1.31630817E-14  1.19724616E-14
  7.50547390E-01 -2.01599400E-01 -3.79691550E-01 -3.22621178E-01  3.35761601E-16
 -2.04480530E-16 -5.48101899E-16  4.92546746E-01 -4.32816676E-01  4.92546746E-01
 -4.32816676E-01  5.78166504E-16  1.14542691E-14 -3.15346137E-16 -9.62844588E-01
  1.50777050E-14 -2.39202801E-14 -1.65723866E-16  1.03597361E+00 -1.27310023E-14
  5.07354197E-15  3.42098684E-15  4.27057145E-15  6.33007444E-18 -7.46891235E-16
 -1.42891684E-02  2.63688314E-15  9.04997639E-16  3.62171631E-15 -1.01909210E-16
  4.99887756E-02  9.63800440E-03 -1.15497889E-14  1.20912486E-14  7.24397893E-01
 -3.18169213E-01  1.66394676E-14 -1.31911617E-14 -3.04362308E-01  2.34048636E-01
 -9.66950172E-02  5.40447616E-02 -1.27742293E-17 -5.06539255E-16  6.81268924E-16
  7.06741765E-01 -3.92437043E-01  7.06741765E-01 -3.92437043E-01 -6.39332337E-15
 -9.20027943E-14 -1.03910218E+00  1.50472423E-16  2.32539682E-14  2.36866082E-13
  1.53574657E+00 -2.13338653E-16 -7.19702076E-14 -4.70248840E-14 -1.75554016E-14
 -2.73461809E-14 -2.00825223E-16 -2.58055000E-02 -1.12072534E-16 -1.07763298E-01
  9.30156732E-01  1.07763298E-01 -9.30156732E-01 -8.63008976E-02 -1.42870409E+00
  6.85328530E-14 -5.88663227E-17  5.00204231E-01  3.61105788E+00 -1.16122389E-13
 -9.32361334E-17 -1.17377540E+00 -6.45227195E-01 -2.80445814E-01 -4.03768142E-01
 -6.23643806E-17 -5.15158662E-16 -1.82085183E-15 -3.20582566E-01 -7.97843480E-01
 -3.20582566E-01 -7.97843480E-01  7.35495146E-03  7.79751538E-02  3.44776291E-16
 -2.53927297E-16 -3.52118563E-03 -2.31064316E-01 -1.04560458E-15 -2.25823294E-16
  1.30657284E-01 -5.80183019E-01 -3.67065234E-01  1.00882602E+00 -1.67477776E-13
  1.32595215E-15 -1.88050845E-14  7.86466198E-02  3.72489423E-02  7.86466198E-02
  3.72489423E-02  1.36753729E-15  1.30943501E-14 -3.91008120E-16  1.17389166E-16
 -3.60642482E-16 -3.97451900E-14 -4.98487154E-16  2.28567788E-15  2.05401450E-14
 -9.54584781E-14 -6.26031175E-14  1.71166929E-13  1.00000000E+00  6.80958927E-16
  7.49989839E-14  1.07933937E-14  6.93470646E-15  1.25336879E-14  6.17397159E-15
  2.25651257E-17 -1.93328732E-15  1.82169852E-16  8.18514120E-03  2.43670034E-16
  2.58033539E-15  6.29929683E-17  3.23775843E-02  1.43361765E-15 -1.38305313E-14
 -5.65541985E-15  1.83691205E-14 -7.54919729E-14 -5.65824811E-17  9.99309199E-01
  9.60794897E-16 -2.33845576E-16  2.62280873E-15 -1.96479965E-15  5.86010462E-02
  4.88098167E-01  1.84748050E-16  3.72870565E-16 -4.00599285E-02 -1.59736080E+00
 -3.68455266E-15 -5.69771640E-16  7.50753228E-01 -7.55546052E-01  1.13750247E+00
 -3.98333264E-02  1.93820810E-15  8.67665315E-15 -2.00780338E-15  8.56269223E-01
  1.48105624E-01  8.56269223E-01  1.48105624E-01  2.55871713E-17 -1.43114687E-15
  8.42421052E-03 -2.01121645E-16  2.76579974E-15  7.18175519E-15 -8.79518398E-01
  4.40178840E-16 -8.69356670E-15  6.79577922E-15 -6.91157201E-15  2.48499138E-16
 -1.00110245E-15  1.29322201E+00 -2.17650092E-16 -9.67882593E-01  3.25433921E-02
  9.67882593E-01 -3.25433921E-02  4.66554167E-01 -3.22289245E-01 -2.92409326E-15
 -1.24053030E-16 -1.17909893E-01 -3.64040761E+00  1.02773692E-14 -7.01805442E-17
  3.18304748E-01  1.53161113E+00  1.56187211E+00  1.54677052E+00 -1.15856116E-15
  7.73578250E-17 -5.16530636E-16 -1.33229620E-01  5.51606929E-01 -1.33229620E-01
  5.51606929E-01
Alpha Orbital Energies                     R   N=          19
 -2.05589680E+01 -1.34559334E+00 -7.10891619E-01 -5.72381568E-01 -4.98422443E-01
  2.12285355E-01  3.06094816E-01  1.02577056E+00  1.13357895E+00  1.16775812E+00
  1.17938817E+00  1.38331913E+00  1.43456015E+00  2.01825227E+00  2.03204188E+00
  2.06651217E+00  2.63136792E+00  2.95999795E+00  3.97436049E+00
Total SCF Density                          R   N=         190
  2.07718412E+00 -1.81487171E-01  5.07841814E-01  1.78850955E-15 -1.22448761E-15
  5.17946363E-01 -4.56688474E-16  5.66697478E-16  2.55377056E-18  8.17819234E-01
 -4.47569535E-02  9.30726516E-02 -4.23348548E-16  2.31957871E-16  6.36947958E-01
 -2.22662106E-01  5.22911482E-01 -9.20931819E-16 -1.24915993E-15  2.80879672E-01
  5.94187037E-01 -1.43977946E-15  8.43933009E-16  3.10570148E-01 -1.18913489E-16
  2.68959399E-15  1.89563538E-15  1.86223562E-01 -2.25478283E-16  4.58721736E-16
  1.63314857E-17  6.54323537E-01  1.67679120E-16 -1.00186883E-15 -8.65731993E-17
  5.23513356E-01 -3.73057636E-02  8.50721453E-02 -2.08808636E-16 -4.95530907E-17
  4.57934453E-01  2.19620749E-01  2.03193591E-15 -5.21376982E-17  3.29900400E-01
 -1.95506877E-02  2.52256292E-02  6.80819061E-16  1.09387278E-16 -4.19619776E-03
  2.35135554E-02  4.58958033E-16  8.72994313E-17 -2.07450561E-03  1.43538113E-03
 -9.11632203E-03  2.72354287E-03 -8.98772640E-16  1.33133365E-16  1.34742087E-02
  6.80466519E-03 -4.67442945E-16  1.05595526E-16  9.70991833E-03 -7.29394871E-06
  3.17226104E-04 -1.03426243E-02  5.07817200E-03 -2.29550250E-17  1.99012492E-16
 -5.59939067E-02 -1.16097354E-02 -2.32675121E-16  1.60339811E-16 -3.97759199E-02
  1.11308315E-03 -1.12662861E-03  5.32381378E-03  4.80724621E-16  5.20288493E-17
  1.03357579E-17 -5.08168145E-16 -2.95114011E-18  4.18192780E-17  6.19751019E-18
 -4.06576862E-16  1.27884571E-19  1.08154441E-19 -1.94244647E-18 -7.10196463E-19
  4.45342448E-31  2.98722867E-15  1.63392944E-16 -5.21234773E-02  2.44379028E-17
  9.03561600E-17  9.49171802E-17 -3.12541939E-02  1.81144615E-17  5.86197416E-17
 -8.40155475E-17  7.90104671E-17 -1.61544479E-17 -1.04013790E-18  5.24544062E-03
 -7.68956221E-16 -5.84698196E-17 -7.85631780E-17 -4.38754707E-02  3.92282549E-17
  6.79817242E-17 -4.06461398E-17 -3.51040328E-02  3.79818378E-17 -3.80411591E-18
 -2.95231509E-18 -1.23530992E-17  2.72628909E-17  6.58133169E-18  2.35389050E-03
 -3.41666862E-02  7.96828323E-02 -2.35857977E-01 -1.79395509E-16 -1.82120879E-01
  2.34727704E-02 -1.41424773E-01 -1.43868267E-16 -1.27036982E-01  6.80652439E-03
 -3.65366826E-03  1.89064883E-02  5.10324036E-18  2.37355425E-02  2.66270188E-17
  1.82380142E-01  1.11871176E-02 -2.59401869E-02 -1.10960023E-01  4.76471823E-16
 -9.34382086E-02 -5.31876535E-02 -6.65336668E-02  3.80604934E-16 -6.76287197E-02
 -2.82251284E-05 -1.99645273E-03  7.88318413E-03 -3.01792382E-18  1.11664502E-02
 -1.55644616E-17  7.46008417E-02  3.77836112E-02 -3.41666862E-02  7.96828323E-02
  2.35857977E-01  4.29908131E-18 -1.82120879E-01  2.34727704E-02  1.41424773E-01
  1.61156395E-17 -1.27036982E-01  6.80652439E-03 -3.65366826E-03  1.89064883E-02
  1.45164581E-17 -2.37355425E-02 -5.46541512E-17 -3.24258275E-02 -2.64552075E-02
  1.82380142E-01  1.11871176E-02 -2.59401869E-02  1.10960023E-01  3.79022591E-16
 -9.34382086E-02 -5.31876535E-02  6.65336668E-02  3.08759395E-16 -6.76287197E-02
 -2.82251284E-05 -1.99645273E-03  7.88318413E-03  1.41054993E-18 -1.11664502E-02
 -4.39389635E-17 -2.64552075E-02 -9.75848036E-03  7.46008417E-02  3.77836112E-02
Pure Switching                             I                1
Dipole_Data                                R   N=           3
  1.49994829E-17 -1.20363318E-16 -2.21882575E+00
Quadrupole_Data                            R   N=           6
 -4.14578762E+00  1.97873824E-16 -7.21141974E+00 -1.16831486E-15  7.36919782E-16
 -5.97529658E+00
Octapole_Data                              R   N=          10
 -6.17118301E-15 -2.63662567E-16 -8.96512134E-16  1.19428215E-16 -1.35920152E+00
  1.84129423E-17 -3.88988083E-01 -5.54701425E-15 -6.18824777E-17 -1.44971736E+00
Hexadecapole_Data                          R   N=          15
 -5.41702604E+00  1.55512195E-16 -2.02170783E+00  1.10027745E-16 -5.19016613E+00
  1.98105056E-15  2.87690761E-16  2.58043004E-16  6.32555446E-16 -1.58070585E+00
  6.01698309E-17 -1.91719159E+00  1.42102435E-15  6.38514869E-16 -6.01905524E+00
