Jobname.Temp
FORCE     R                             cc-pVDZ             
Number of atoms                            I                3
Charge                                     I                0
Multiplicity                               I                1
Number of electrons                        I               10
Number of alpha electrons                  I                5
Number of beta electrons                   I                5
Atomic numbers                             I   N=           3
           8           1           1
Current cartesian coordinates              R   N=           9
  0.00000000E+00  0.00000000E+00  2.45244877E-01 -1.41946211E+00  0.00000000E+00
 -8.76379388E-01  1.41946211E+00  0.00000000E+00 -8.76379388E-01
Nuclear charges                            R   N=           3
  8.00000000E+00  1.00000000E+00  1.00000000E+00
Number of basis functions                  I               24
Number of contracted shells                I               12
Number of primitive shells                 I               30
Highest angular momentum                   I                2
Largest degree of contraction              I                7
Shell types                                I   N=          12
           0           0           0           1           1          -2
           0           0           1           0           0           1
Number of primitives per shell             I   N=          12
           7           7           1           3           1           1
           3           1           1           3           1           1
Shell to atom map                          I   N=          12
           1           1           1           1           1           1
           2           2           2           3           3           3
Primitive exponents                        R   N=          30
  1.17200000E+04  1.75900000E+03  4.00800000E+02  1.13700000E+02  3.70300000E+01
  1.32700000E+01  5.02500000E+00  1.17200000E+04  1.75900000E+03  1.13700000E+02
  3.70300000E+01  1.32700000E+01  5.02500000E+00  1.01300000E+00  3.02300000E-01
  1.77000000E+01  3.85400000E+00  1.04600000E+00  2.75300000E-01  1.18500000E+00
  1.30100000E+01  1.96200000E+00  4.44600000E-01  1.22000000E-01  7.27000000E-01
  1.30100000E+01  1.96200000E+00  4.44600000E-01  1.22000000E-01  7.27000000E-01
Contraction coefficients                   R   N=          30
  7.11859989E-04  5.48520206E-03  2.79099247E-02  1.05133208E-01  2.84002488E-01
  4.51673950E-01  2.73208124E-01 -3.13436252E-07 -6.17665315E-05 -4.15726173E-03
 -1.41000865E-02 -1.26138482E-01 -1.09614593E-01  1.09868833E+00  1.00000000E+00
  6.26791663E-02  3.33536566E-01  7.41239642E-01  1.00000000E+00  1.00000000E+00
  3.34987264E-02  2.34800801E-01  8.13682958E-01  1.00000000E+00  1.00000000E+00
  3.34987264E-02  2.34800801E-01  8.13682958E-01  1.00000000E+00  1.00000000E+00
Coordinates of each shell                  R   N=          36
  0.00000000E+00  0.00000000E+00  2.45244877E-01  0.00000000E+00  0.00000000E+00
  2.45244877E-01  0.00000000E+00  0.00000000E+00  2.45244877E-01  0.00000000E+00
  0.00000000E+00  2.45244877E-01  0.00000000E+00  0.00000000E+00  2.45244877E-01
  0.00000000E+00  0.00000000E+00  2.45244877E-01 -1.41946211E+00  0.00000000E+00
 -8.76379388E-01 -1.41946211E+00  0.00000000E+00 -8.76379388E-01 -1.41946211E+00
  0.00000000E+00 -8.76379388E-01  1.41946211E+00  0.00000000E+00 -8.76379388E-01
  1.41946211E+00  0.00000000E+00 -8.76379388E-01  1.41946211E+00  0.00000000E+00
 -8.76379388E-01
Overlap Matrix                             R   N=         300
  1.00000000E+00  2.14476014E-01  1.00000000E+00  1.83816867E-01  7.92109402E-01
  1.00000000E+00  0.00000000E+00  0.00000000E+00  0.00000000E+00  1.00000000E+00
  0.00000000E+00  0.00000000E+00  0.00000000E+00  0.00000000E+00  1.00000000E+00
 -8.15189715E-18 -4.96467587E-17 -1.84529225E-17  0.00000000E+00  0.00000000E+00
  1.00000000E+00  0.00000000E+00  0.00000000E+00  0.00000000E+00  5.01271483E-01
  0.00000000E+00  0.00000000E+00  1.00000000E+00  0.00000000E+00  0.00000000E+00
  0.00000000E+00  0.00000000E+00  5.01271483E-01  0.00000000E+00  0.00000000E+00
  1.00000000E+00  1.07718051E-18 -2.46361912E-17 -2.90784214E-17  0.00000000E+00
  0.00000000E+00  5.01271483E-01  0.00000000E+00  0.00000000E+00  1.00000000E+00
  0.00000000E+00  0.00000000E+00  0.00000000E+00  0.00000000E+00  0.00000000E+00
  1.61372145E-17  0.00000000E+00  0.00000000E+00 -3.77645449E-17  1.00000000E+00
  0.00000000E+00  0.00000000E+00  0.00000000E+00  1.39752377E-17  0.00000000E+00
  0.00000000E+00 -3.27050553E-17  0.00000000E+00  0.00000000E+00  0.00000000E+00
  1.00000000E+00  0.00000000E+00  0.00000000E+00  0.00000000E+00  0.00000000E+00
  1.39752377E-17  0.00000000E+00  0.00000000E+00 -3.27050553E-17  0.00000000E+00
  0.00000000E+00  0.00000000E+00  1.00000000E+00  0.00000000E+00  0.00000000E+00
  0.00000000E+00  0.00000000E+00  0.00000000E+00  0.00000000E+00  0.00000000E+00
  0.00000000E+00  0.00000000E+00  0.00000000E+00  0.00000000E+00  0.00000000E+00
  1.00000000E+00  0.00000000E+00  0.00000000E+00  0.00000000E+00  0.00000000E+00
  0.00000000E+00  0.00000000E+00  0.00000000E+00  0.00000000E+00  0.00000000E+00
  0.00000000E+00  0.00000000E+00  0.00000000E+00  0.00000000E+00  1.00000000E+00
  4.98629718E-02  2.99361237E-01  4.97137471E-01 -2.21323262E-01  0.00000000E+00
 -1.74884232E-01 -4.88347373E-01  0.00000000E+00 -3.85880158E-01  1.76692487E-02
  1.94428885E-01  0.00000000E+00  1.23028916E-01  0.00000000E+00  1.00000000E+00
  6.49299136E-02  3.55181628E-01  6.48012865E-01 -8.32904941E-02  0.00000000E+00
 -6.58141127E-02 -3.07346359E-01  0.00000000E+00 -2.42857581E-01  1.84646308E-03
  2.03181111E-02  0.00000000E+00  1.28567069E-02  0.00000000E+00  6.84860251E-01
  1.00000000E+00  8.23588157E-02  3.54395315E-01  3.07280567E-01 -1.58515423E-01
  0.00000000E+00 -2.80080002E-01  7.65036345E-02  0.00000000E+00 -2.49039520E-01
  1.76767727E-01  1.60984247E-01  0.00000000E+00 -2.30167598E-02  0.00000000E+00
 -2.98375835E-16  0.00000000E+00  1.00000000E+00  0.00000000E+00  0.00000000E+00
  0.00000000E+00  0.00000000E+00  1.95937457E-01  0.00000000E+00  0.00000000E+00
  3.91673494E-01  0.00000000E+00  0.00000000E+00  0.00000000E+00 -1.97358809E-01
  0.00000000E+00 -2.49765773E-01  0.00000000E+00  0.00000000E+00  0.00000000E+00
  1.00000000E+00  6.50779232E-02  2.80034516E-01  2.42805594E-01 -2.80080002E-01
  0.00000000E+00 -2.53749152E-02 -2.49039520E-01  0.00000000E+00  1.94888553E-01
 -2.02157947E-01  3.33881513E-02  0.00000000E+00  1.79171528E-01  0.00000000E+00
  3.72169566E-17  0.00000000E+00  0.00000000E+00  0.00000000E+00  1.00000000E+00
  4.98629718E-02  2.99361237E-01  4.97137471E-01  2.21323262E-01  0.00000000E+00
 -1.74884232E-01  4.88347373E-01  0.00000000E+00 -3.85880158E-01  1.76692487E-02
 -1.94428885E-01  0.00000000E+00  1.23028916E-01  0.00000000E+00  1.24820807E-01
  3.11382429E-01  1.64526186E-01  0.00000000E+00  5.17692294E-19  1.00000000E+00
  6.49299136E-02  3.55181628E-01  6.48012865E-01  8.32904941E-02  0.00000000E+00
 -6.58141127E-02  3.07346359E-01  0.00000000E+00 -2.42857581E-01  1.84646308E-03
 -2.03181111E-02  0.00000000E+00  1.28567069E-02  0.00000000E+00  3.11382429E-01
  6.11629279E-01  1.76135312E-01  0.00000000E+00  0.00000000E+00  6.84860251E-01
  1.00000000E+00 -8.23588157E-02 -3.54395315E-01 -3.07280567E-01 -1.58515423E-01
  0.00000000E+00  2.80080002E-01  7.65036345E-02  0.00000000E+00  2.49039520E-01
 -1.76767727E-01  1.60984247E-01  0.00000000E+00  2.30167598E-02  0.00000000E+00
 -1.64526186E-01 -1.76135312E-01 -2.59566896E-01  0.00000000E+00  0.00000000E+00
  2.98375835E-16  0.00000000E+00  1.00000000E+00  0.00000000E+00  0.00000000E+00
  0.00000000E+00  0.00000000E+00  1.95937457E-01  0.00000000E+00  0.00000000E+00
  3.91673494E-01  0.00000000E+00  0.00000000E+00  0.00000000E+00 -1.97358809E-01
  0.00000000E+00  2.49765773E-01  0.00000000E+00  0.00000000E+00  0.00000000E+00
  5.34170723E-02  0.00000000E+00  0.00000000E+00  0.00000000E+00  0.00000000E+00
  1.00000000E+00  6.50779232E-02  2.80034516E-01  2.42805594E-01  2.80080002E-01
  0.00000000E+00 -2.53749152E-02  2.49039520E-01  0.00000000E+00  1.94888553E-01
 -2.02157947E-01 -3.33881513E-02  0.00000000E+00  1.79171528E-01  0.00000000E+00
  5.17692294E-19  0.00000000E+00  0.00000000E+00  0.00000000E+00  5.34170723E-02
  3.72169566E-17  0.00000000E+00  0.00000000E+00  0.00000000E+00  1.00000000E+00
Core Hamiltonian Matrix                    R   N=         300
 -3.30445399E+01 -6.61317533E+00 -9.72110741E+00 -5.84006252E+00 -7.64458433E+00
 -7.61953966E+00  0.00000000E+00  0.00000000E+00  0.00000000E+00 -8.56084937E+00
  0.00000000E+00  0.00000000E+00  0.00000000E+00  0.00000000E+00 -8.45617332E+00
  2.85147649E-02  1.85793272E-01  1.80197019E-01  0.00000000E+00  0.00000000E+00
 -8.52153068E+00  0.00000000E+00  0.00000000E+00  0.00000000E+00 -3.84708081E+00
  0.00000000E+00  0.00000000E+00 -4.82888973E+00  0.00000000E+00  0.00000000E+00
  0.00000000E+00  0.00000000E+00 -3.75146396E+00  0.00000000E+00  0.00000000E+00
 -4.60664963E+00  4.13626348E-03  1.19576597E-01  2.45281453E-01  0.00000000E+00
  0.00000000E+00 -3.81116496E+00  0.00000000E+00  0.00000000E+00 -4.74541133E+00
 -3.10792391E-04 -1.17381834E-02 -1.58876329E-02  0.00000000E+00  0.00000000E+00
  1.50697026E-01  0.00000000E+00  0.00000000E+00  1.30335279E-01 -4.34601572E+00
  0.00000000E+00  0.00000000E+00  0.00000000E+00  2.12782883E-01  0.00000000E+00
  0.00000000E+00  2.21581808E-01  0.00000000E+00  0.00000000E+00  0.00000000E+00
 -4.49137644E+00  0.00000000E+00  0.00000000E+00  0.00000000E+00  0.00000000E+00
  1.25051555E-01  0.00000000E+00  0.00000000E+00  1.05664943E-01  0.00000000E+00
  0.00000000E+00  0.00000000E+00 -4.29676213E+00 -2.16401113E-03 -8.17316004E-02
 -1.10623733E-01  0.00000000E+00  0.00000000E+00  4.38656641E-02  0.00000000E+00
  0.00000000E+00  5.79584324E-02  4.55388404E-02  0.00000000E+00  0.00000000E+00
 -4.37247149E+00  0.00000000E+00  0.00000000E+00  0.00000000E+00  0.00000000E+00
  0.00000000E+00  0.00000000E+00  0.00000000E+00  0.00000000E+00  0.00000000E+00
  0.00000000E+00  0.00000000E+00  0.00000000E+00  0.00000000E+00 -4.33032744E+00
 -1.58749556E+00 -2.85244867E+00 -3.46748112E+00  1.74935294E+00  0.00000000E+00
  1.42521631E+00  2.50705607E+00  0.00000000E+00  2.03711818E+00 -1.39971891E-01
 -1.22150023E+00  0.00000000E+00 -7.73501141E-01  0.00000000E+00 -5.13619647E+00
 -2.06492412E+00 -3.36397318E+00 -4.22043400E+00  6.48690792E-01  0.00000000E+00
  5.93370718E-01  1.32966098E+00  0.00000000E+00  1.20728237E+00 -3.68795444E-02
 -1.64076113E-01  0.00000000E+00 -1.45198413E-01  0.00000000E+00 -3.57242221E+00
 -4.21970675E+00 -2.61876974E+00 -3.45405724E+00 -2.87495682E+00  1.24416071E+00
  0.00000000E+00  2.21923374E+00  4.85152955E-02  0.00000000E+00  1.60378753E+00
 -9.85002837E-01 -7.56410673E-01  0.00000000E+00  1.79258454E-01  0.00000000E+00
 -1.22658645E+00 -1.05172092E+00 -4.21180697E+00  0.00000000E+00  0.00000000E+00
  0.00000000E+00  0.00000000E+00 -1.48814335E+00  0.00000000E+00  0.00000000E+00
 -1.90945546E+00  0.00000000E+00  0.00000000E+00  0.00000000E+00  1.07210756E+00
  0.00000000E+00  1.32549356E+00  0.00000000E+00  0.00000000E+00  0.00000000E+00
 -3.38597655E+00 -2.06800841E+00 -2.69855681E+00 -2.21707696E+00  2.14998352E+00
  0.00000000E+00  2.39184288E-01  1.52141267E+00  0.00000000E+00 -6.93673678E-01
  1.08147803E+00 -1.10851023E-01  0.00000000E+00 -8.99043001E-01  0.00000000E+00
 -9.07553454E-01 -7.73378807E-01 -6.16933130E-01  0.00000000E+00 -3.87346203E+00
 -1.58749556E+00 -2.85244867E+00 -3.46748112E+00 -1.74935294E+00  0.00000000E+00
  1.42521631E+00 -2.50705607E+00  0.00000000E+00  2.03711818E+00 -1.39971891E-01
  1.22150023E+00  0.00000000E+00 -7.73501141E-01  0.00000000E+00 -9.65202107E-01
 -1.90717538E+00 -1.32202561E+00  0.00000000E+00 -2.22165963E-01 -5.13619647E+00
 -2.06492412E+00 -3.36397318E+00 -4.22043400E+00 -6.48690792E-01  0.00000000E+00
  5.93370718E-01 -1.32966098E+00  0.00000000E+00  1.20728237E+00 -3.68795444E-02
  1.64076113E-01  0.00000000E+00 -1.45198413E-01  0.00000000E+00 -1.90717538E+00
 -2.98170234E+00 -1.49217870E+00  0.00000000E+00 -4.79800787E-01 -3.57242221E+00
 -4.21970675E+00  2.61876974E+00  3.45405724E+00  2.87495682E+00  1.24416071E+00
  0.00000000E+00 -2.21923374E+00  4.85152955E-02  0.00000000E+00 -1.60378753E+00
  9.85002837E-01 -7.56410673E-01  0.00000000E+00 -1.79258454E-01  0.00000000E+00
  1.32202561E+00  1.49217870E+00  2.01961328E+00  0.00000000E+00  3.37135390E-01
  1.22658645E+00  1.05172092E+00 -4.21180697E+00  0.00000000E+00  0.00000000E+00
  0.00000000E+00  0.00000000E+00 -1.48814335E+00  0.00000000E+00  0.00000000E+00
 -1.90945546E+00  0.00000000E+00  0.00000000E+00  0.00000000E+00  1.07210756E+00
  0.00000000E+00 -1.32549356E+00  0.00000000E+00  0.00000000E+00  0.00000000E+00
 -3.66385641E-01  0.00000000E+00  0.00000000E+00  0.00000000E+00  0.00000000E+00
 -3.38597655E+00 -2.06800841E+00 -2.69855681E+00 -2.21707696E+00 -2.14998352E+00
  0.00000000E+00  2.39184288E-01 -1.52141267E+00  0.00000000E+00 -6.93673678E-01
  1.08147803E+00  1.10851023E-01  0.00000000E+00 -8.99043001E-01  0.00000000E+00
 -2.22165963E-01 -4.79800787E-01 -3.37135390E-01  0.00000000E+00 -4.91492821E-01
 -9.07553454E-01 -7.73378807E-01  6.16933130E-01  0.00000000E+00 -3.87346203E+00
SCF Energy                                 R     -7.602677459111555E+01
EOMEE A Excitation Energies                R   N=           2
  3.00361905E-01  3.76170267E-01
Oscillator Strengths                       R   N=           2
  0.00000000E+00  0.00000000E+00
Alpha Amplitudes                           R   N=           4
  6.85106609E-01  6.85106609E-01  6.79681060E-01  6.79681060E-01
 J Indexes                                 I   N=           3
           0           2           4
 I Indexes                                 I   N=           4
         152         361         153         362
Number of independent functions            I               24
Alpha MO coefficients                      R   N=         576
  9.97268782E-01  1.52420703E-02 -2.66390521E-03  1.85730945E-12 -1.08327635E-11
 -1.77456966E-03 -3.39655387E-13  4.30308802E-12  4.85658038E-04  1.74955050E-05
 -6.17704672E-14 -3.07456036E-12  1.33390225E-04  1.11131860E-15 -2.38341094E-04
  4.18827922E-04 -5.67975553E-04 -2.93109783E-13 -4.87551132E-04 -2.38341095E-04
  4.18827922E-04  5.67975554E-04 -2.93093903E-13 -4.87551133E-04 -2.03493061E-01
  4.41356175E-01  3.74903704E-01  9.27515842E-11  2.67496644E-10 -7.97715029E-02
  3.33100075E-11  5.67227145E-11  1.34305054E-02  1.39214970E-03 -4.16430085E-12
 -1.03293689E-11  2.93012274E-03  4.23693905E-15  1.94141894E-01  9.99244664E-03
  3.70446831E-02 -9.90586597E-12  2.09419757E-02  1.94141894E-01  9.99244667E-03
 -3.70446831E-02 -9.92207407E-12  2.09419757E-02  2.48786636E-11 -4.83454145E-11
 -2.98155042E-11  4.90624244E-01  5.15043896E-13  1.42456888E-10  2.23895861E-01
  2.73944094E-13  4.81626457E-11 -5.25082061E-12 -2.69829355E-02 -6.19111780E-15
  4.20187843E-12 -6.69330344E-11 -3.27276740E-01 -9.07279604E-02 -2.28493574E-02
  2.71277068E-11 -3.28893102E-02  3.27276740E-01  9.07279604E-02 -2.28493574E-02
 -2.71076347E-11  3.28893102E-02 -6.92271783E-02  1.51313010E-01  3.53078857E-01
 -2.93022551E-13 -3.33735320E-09  5.44031928E-01  4.82006796E-12 -2.22380991E-09
  3.62219997E-01 -1.80064361E-02  1.69636492E-11  2.45544307E-11 -4.55223126E-03
  8.23345198E-15 -2.08287705E-01 -4.02936147E-02 -3.20111639E-02 -1.36441854E-10
  7.13063764E-03 -2.08287706E-01 -4.02936150E-02  3.20111639E-02 -1.36424613E-10
  7.13063764E-03 -4.61464510E-10  1.13830368E-09  3.01855277E-09 -1.93515870E-14
  6.31319439E-01  1.82420446E-09  3.60278176E-14  4.95416194E-01  1.51422516E-09
 -4.41613087E-11  3.77794674E-14 -1.83198877E-02 -6.61927717E-12  6.74574979E-12
 -1.55939037E-09 -1.40204020E-09 -1.01477006E-10  3.11616022E-02  5.71966071E-11
 -1.56020836E-09 -1.40302901E-09  1.01494257E-10  3.11616022E-02  5.71847254E-11
  8.35934140E-02 -7.10944760E-02 -1.00009055E+00 -2.10309225E-10  1.01442588E-09
  1.91784142E-01 -3.60621415E-10  1.17283337E-09  3.39581857E-01 -7.87549786E-03
  1.48926999E-11 -2.30086494E-11 -9.89056945E-03 -7.04573893E-15  5.76744828E-02
  8.28303943E-01  1.73738684E-02  4.29912313E-11  1.64221736E-02  5.76744828E-02
  8.28303944E-01 -1.73738684E-02  4.29742926E-11  1.64221737E-02  5.55473844E-11
 -3.85641588E-11 -6.59523325E-10  2.83728296E-01 -2.23831262E-13  5.45387797E-11
  6.69633309E-01 -2.96523786E-13  1.41135331E-10 -1.09934006E-11 -2.11675665E-02
  4.72262775E-15  5.01400310E-12  3.30823271E-12  2.68610961E-02  1.45011399E+00
  2.06600688E-02 -1.08075215E-11  1.71200442E-02 -2.68610961E-02 -1.45011399E+00
  2.06600688E-02  1.07797114E-11 -1.71200442E-02  4.20689016E-11 -2.42507368E-10
  2.97203692E-10 -2.64448471E-01 -1.78372934E-14  3.36260155E-10 -4.61726090E-01
  2.64840560E-13  7.47382052E-11  1.74889825E-11 -1.11653586E-01  4.85767332E-15
  7.29842298E-11  3.83376154E-12 -9.44716968E-01  6.90980373E-01  7.40544224E-02
  1.19035358E-11  1.49996791E-01  9.44716969E-01 -6.90980374E-01  7.40544228E-02
 -1.18975490E-11 -1.49996791E-01  4.73808862E-02 -2.59671206E-01  3.38118229E-01
  1.81884315E-10 -1.68175844E-10  3.39477166E-01  5.28318292E-10  8.60583289E-10
 -2.39021638E-02  3.54651354E-03  1.20984840E-10 -7.53217471E-12  1.06580128E-01
 -1.18936288E-14  7.79620727E-01 -5.49490018E-01 -2.98030956E-01  5.05512236E-11
 -6.62712297E-02  7.79620725E-01 -5.49490017E-01  2.98030956E-01  5.05287987E-11
 -6.62712294E-02  4.85249039E-02 -1.24296612E-01 -7.41079155E-01 -4.43783392E-10
  4.39652632E-09 -7.47449503E-01  1.01276916E-09 -5.00315082E-09  1.28425448E+00
 -1.32040964E-02 -4.27389374E-11  6.06042302E-12  9.08380578E-03 -6.28942529E-15
  5.59993861E-01  1.06247447E-01  7.62882248E-02 -5.95933827E-11  2.52815994E-01
  5.59993860E-01  1.06247446E-01 -7.62882244E-02 -5.96195107E-11  2.52815994E-01
  1.83036178E-10 -5.10527937E-10 -3.65538238E-09 -8.56662823E-13 -9.67732476E-01
 -3.83993763E-09  2.30187519E-12  1.02495975E+00  6.02344655E-09 -6.93757480E-11
 -4.19738828E-14  3.49318000E-03 -3.22198283E-11  1.66888378E-12  2.35821071E-09
  6.69200817E-10  6.36789692E-10  8.51952018E-03  1.27587058E-09  2.35707829E-09
  6.67204012E-10 -6.36136285E-10  8.51952037E-03  1.27550132E-09 -3.89411140E-11
 -1.38976694E-10  8.86865044E-10 -7.37882833E-01  1.28336862E-12  4.05263892E-10
  1.75931162E+00 -1.22216920E-12 -8.50188656E-10  1.21199097E-11 -4.53023915E-02
 -8.92705704E-15 -3.75944081E-11  1.51741822E-11  3.74157409E-01  8.29181953E-01
  2.96724072E-01 -1.95449041E-11  1.93563207E-01 -3.74157410E-01 -8.29181953E-01
  2.96724072E-01  1.95600462E-11 -1.93563207E-01 -3.27744144E-02  5.04869925E-01
 -4.46488814E-01 -5.16714588E-11 -6.77162650E-11  1.27524459E-01 -8.98767449E-11
 -6.26691609E-11 -7.56957341E-01 -1.16689217E-01 -1.87791588E-11 -3.40864378E-11
  5.40050633E-03  1.91345838E-15 -3.50339850E-01  2.01085706E-01 -3.43578310E-01
  8.90469081E-11  5.36966906E-01 -3.50339850E-01  2.01085706E-01  3.43578310E-01
  8.90539456E-11  5.36966907E-01  2.66732989E-15  6.10110079E-14 -1.42578949E-13
  6.15749330E-11  1.15220208E-10 -1.42089262E-14 -5.10336226E-11 -4.54427912E-10
  6.68377230E-14  6.02344760E-15  1.03128177E-11 -6.83987311E-11  1.45288052E-14
  1.31693973E-01 -4.46963898E-11 -4.26790123E-11 -1.11536323E-11 -6.86543217E-01
  1.18392750E-11  4.48245216E-11  4.27160028E-11 -1.11729357E-11  6.86543218E-01
 -1.18462113E-11  7.98745114E-12  3.48173074E-10 -7.37775344E-10  2.08239946E-14
 -1.99397648E-02 -5.11589863E-11 -4.31736723E-14 -6.33011804E-01  3.45416426E-10
  4.84317414E-11 -1.00292754E-15 -1.60566329E-01  6.75648205E-12 -8.54281645E-11
  2.42346340E-10  1.10657170E-10  1.28596619E-10  7.65492746E-01 -6.84130489E-11
  2.42393876E-10  1.10685959E-10 -1.28592979E-10  7.65492745E-01 -6.83970437E-11
 -1.91796533E-02 -1.60527495E+00  3.04881397E+00  5.03068524E-11  7.25160183E-11
 -1.12987705E-01 -3.75729635E-10 -1.16017820E-10 -9.69305216E-01 -1.11617904E-01
 -3.51383679E-12 -2.00184528E-11 -1.09141048E-01  5.11300890E-15 -8.32697834E-01
 -3.89043913E-01 -3.65080738E-01  1.96420499E-10  5.38846266E-03 -8.32697834E-01
 -3.89043912E-01  3.65080738E-01  1.96481679E-10  5.38846298E-03 -4.01817035E-12
 -1.52970456E-10  3.66715713E-10  6.65501024E-03 -9.91708778E-15 -3.58313310E-11
  8.79446289E-01 -1.49818985E-15 -2.03157217E-10 -5.22090635E-11  3.01486625E-02
  4.56613171E-15 -2.33528474E-12  1.26813038E-12  3.75817514E-01  8.85582067E-02
 -4.73949151E-01  1.38829117E-11  6.97044631E-01 -3.75817514E-01 -8.85582067E-02
 -4.73949151E-01 -1.38629786E-11 -6.97044631E-01 -9.38412408E-11  1.43096457E-09
  1.87957570E-09  8.34093950E-01 -7.15764951E-14 -1.48300720E-09  1.37098614E-01
  2.15731672E-14 -4.12996769E-10 -1.15784098E-10  1.37339794E-01  6.68557510E-16
 -4.26260770E-10 -5.91051491E-11  2.90028235E-01  3.30585563E-01  7.29797330E-01
 -7.99525583E-12  5.49061716E-01 -2.90028237E-01 -3.30585564E-01  7.29797333E-01
  7.98912259E-12 -5.49061718E-01  4.40240577E-02 -7.31269528E-01 -7.87845023E-01
  1.73738647E-09  1.51595529E-10  6.76743083E-01  2.67882147E-10 -3.88964174E-11
  1.75690801E-01  5.03434512E-02  3.27369402E-10 -5.48932977E-11  2.18039801E-01
 -2.95818741E-15  4.75279328E-01  1.58691331E-01  7.34696933E-01  2.97216586E-12
  5.48281846E-01  4.75279327E-01  1.58691329E-01 -7.34696930E-01  2.97631789E-12
  5.48281844E-01 -2.95415898E-12  6.93794982E-12 -3.73603607E-11  4.00862006E-15
  1.15472656E-02  7.52779284E-11  1.84124766E-15 -3.13632923E-01 -2.60037409E-11
  1.11630984E-10 -5.05303911E-15  1.04420636E+00 -2.23479960E-11 -1.20372344E-10
 -5.82169528E-12  1.10680564E-11  7.21394875E-12  4.00870747E-01  6.87814223E-11
 -5.84103590E-12  1.10679880E-11 -7.20314102E-12  4.00870747E-01  6.87860299E-11
  4.26323606E-16 -1.82148860E-14  3.01631504E-14  5.94185819E-11 -1.70225509E-11
 -2.90555800E-15 -4.86714322E-11 -3.47724557E-11 -2.55142524E-14  4.96815239E-14
  6.43383331E-11  1.13698231E-10 -2.14286110E-16  1.06511680E+00 -4.93379136E-11
 -1.37415099E-11  9.84337072E-12  3.70224705E-01  5.16721719E-13  4.93158168E-11
  1.37360482E-11  9.88178068E-12 -3.70224705E-01 -4.92051894E-13 -1.41610676E-02
 -1.52761784E-01  4.97942654E-01  2.58986166E-11 -2.50275990E-11 -6.40847330E-03
  4.29707658E-12  3.83760718E-11 -5.14508228E-01  1.08001931E+00 -4.14550339E-13
 -1.05839985E-10 -2.21571703E-01 -4.73613338E-14 -2.76060737E-01 -3.09442111E-02
 -3.35341148E-01 -4.83496312E-11  3.24920574E-01 -2.76060737E-01 -3.09442111E-02
  3.35341148E-01 -4.83158658E-11  3.24920574E-01 -6.52448580E-02 -1.86730667E-01
  2.28703278E+00 -2.43326331E-11 -7.39909833E-11 -4.07729441E-01  1.88228114E-11
 -5.86852401E-12 -9.50711222E-01  1.86755247E-01 -4.96572054E-11  1.01046395E-11
  1.14719434E+00 -8.63606743E-15 -1.24902451E+00 -1.92440383E-01 -6.21943829E-01
  7.72313513E-12 -4.88142317E-01 -1.24902451E+00 -1.92440383E-01  6.21943829E-01
  7.71905615E-12 -4.88142317E-01 -3.81496977E-12  2.47820896E-11  7.62865604E-11
 -4.68217542E-01  8.29103421E-15 -4.48503786E-11 -1.13612360E+00 -4.13523245E-15
 -2.93430245E-11  7.29965914E-12  1.32831571E+00  4.31110301E-15  2.87762106E-11
 -4.69973108E-11 -1.08621387E+00 -2.89002337E-01 -6.02522806E-01 -1.13767786E-11
 -5.04315346E-01  1.08621387E+00  2.89002337E-01 -6.02522806E-01  1.13801270E-11
  5.04315346E-01
Alpha Orbital Energies                     R   N=          24
 -2.05510678E+01 -1.33756058E+00 -6.97054180E-01 -5.68904820E-01 -4.93554418E-01
  1.85313427E-01  2.56377523E-01  7.85361981E-01  8.59415808E-01  1.16447715E+00
  1.20008649E+00  1.25449852E+00  1.43401744E+00  1.48004569E+00  1.66821101E+00
  1.86482718E+00  1.94158929E+00  2.44963406E+00  2.49237608E+00  3.29158399E+00
  3.33446403E+00  3.51498911E+00  3.85712434E+00  4.15393595E+00
Total SCF Density                          R   N=         300
  2.09038402E+00 -1.99715951E-01  5.46692306E-01 -2.70493045E-01  5.40883850E-01
  1.24580288E+00 -4.40729280E-11  1.05418959E-10  3.23447273E-10  6.15085952E-01
  1.51397100E-10  6.78337755E-12 -1.48882883E-09  2.74770593E-13  4.96654203E-01
 -1.89764532E-02  4.73976333E-02  9.71255576E-02 -1.21111480E-11 -8.74895605E-10
  7.92628307E-01 -3.31959620E-11  5.50863801E-11  3.43513552E-10  2.44493774E-01
  8.53605212E-14 -8.83976870E-11  1.08321390E-01  2.05092324E-10 -1.65098221E-10
 -1.75594250E-09  8.20906156E-14  2.92589694E-01 -1.13592724E-10  1.81685519E-14
  1.86189566E-01 -2.45124399E-02  6.93848847E-02 -2.21804316E-02 -8.57554758E-11
 -1.23861437E-10  4.47357571E-01 -1.25434982E-10  2.61719639E-10  3.13233108E-01
  9.90825817E-04 -1.67860550E-03  1.06771816E-03  3.11719185E-12 -2.49626128E-11
 -2.01595022E-02  5.06493110E-12 -3.02511345E-11 -1.22615170E-02  3.90685498E-03
 -2.54845472E-13 -3.37609685E-13 -1.26097659E-12 -2.35947577E-02  6.69124255E-15
  7.07996314E-12 -7.78750229E-03  7.12019061E-15  5.38816063E-12 -3.21880561E-13
  4.22324777E-03 -9.18980544E-12  1.22235789E-12  5.09902729E-11  4.82126212E-17
 -7.93900644E-03  9.99550066E-12  6.06678914E-16 -4.74061060E-03 -1.20108334E-12
  1.07463859E-12 -9.86358436E-17  3.39067615E-03 -5.38812810E-04  2.82940484E-03
  5.91324593E-03  2.76765099E-12 -8.55652721E-11 -5.71072417E-03  2.79794280E-12
 -6.31466984E-11 -2.66855354E-03  2.21736410E-04  7.47187300E-14  2.17034668E-12
  3.12358928E-03  1.00735651E-16  4.00334755E-15  4.87259841E-15 -8.16546909E-12
 -3.84502839E-12  4.25819154E-15 -1.56168305E-12 -2.77102891E-12  2.21866621E-15
 -4.02995465E-16 -5.99021935E-13  6.57004422E-14  4.43042169E-17  2.98495329E-03
 -3.97053757E-02  9.62121727E-02 -9.71263328E-02 -3.07469313E-01  1.19777794E-10
 -2.25002096E-01 -1.28096392E-01  8.09665639E-11 -8.73494715E-02  4.59231415E-03
  1.42364980E-02 -7.89376737E-12  2.53094948E-03  1.59063651E-12  3.51201971E-01
  6.85763708E-02 -1.08309214E-01 -6.76306611E-01 -5.07258603E-02  7.83558726E-10
  1.46191379E-01 -2.28210834E-02  1.17835565E-09  1.97765735E-01 -8.15768929E-03
  2.01859619E-03 -3.51575347E-11 -6.24728042E-03 -1.52430886E-12  1.26588959E-01
  5.78936573E-01 -1.30938995E-02  2.69750471E-02  1.59589669E-02 -2.51108123E-02
  4.62827581E-11 -4.70054180E-02 -1.02624504E-02  4.97648504E-13 -2.36606735E-02
  1.60506298E-03  1.19391024E-03 -8.99115456E-13  3.21205209E-04  1.66605774E-13
  4.05563091E-02 -5.96833870E-03  7.64999254E-03  1.78919387E-11 -2.38800132E-11
 -1.44712296E-10  1.44724755E-11  1.31142244E-02  1.20250531E-12  6.00085412E-12
  8.14904940E-03  2.19627610E-11 -1.78608225E-12 -5.02583701E-13 -7.90076209E-04
 -3.02291654E-12 -7.01028301E-04  5.58426362E-12  1.02951305E-10 -1.66248107E-12
  1.58544937E-03 -1.03095241E-02  2.11732159E-02  1.72482975E-02 -3.78440410E-02
 -3.21746879E-12 -2.92064047E-03 -1.60179043E-02 -9.33402912E-12  2.21926908E-03
 -5.02677514E-04  1.43354422E-03  2.39207868E-13  4.40637955E-04  3.90607476E-13
  2.97893745E-02  2.48839503E-03  3.35366569E-03 -2.23616184E-12  4.91333313E-03
 -3.97053756E-02  9.62121727E-02 -9.71263330E-02  3.07469312E-01  1.19739587E-10
 -2.25002096E-01  1.28096392E-01  8.08708424E-11 -8.73494715E-02  4.59231415E-03
 -1.42364980E-02 -7.88846917E-12  2.53094948E-03 -1.59299817E-12 -2.08625487E-02
  6.10044776E-02  1.13506079E-02  1.80284339E-11 -1.22327323E-02  3.51201971E-01
  6.85763710E-02 -1.08309214E-01 -6.76306612E-01  5.07258599E-02  7.83379972E-10
  1.46191379E-01  2.28210829E-02  1.17825137E-09  1.97765735E-01 -8.15768931E-03
 -2.01859619E-03 -3.51546534E-11 -6.24728043E-03  1.52168356E-12  6.10044777E-02
  5.59905030E-01 -8.90928827E-03  9.95047059E-11 -3.76144979E-03  1.26588959E-01
  5.78936575E-01  1.30938995E-02 -2.69750471E-02 -1.59589670E-02 -2.51108124E-02
 -4.62885082E-11  4.70054180E-02 -1.02624504E-02 -4.95344577E-13  2.36606735E-02
 -1.60506299E-03  1.19391025E-03  8.98845801E-13 -3.21205209E-04  1.66809326E-13
 -1.13506079E-02  8.90928828E-03 -4.16649026E-03 -3.51136770E-13  1.60099394E-04
 -4.05563091E-02  5.96833874E-03  7.64999254E-03  1.78951420E-11 -2.38867511E-11
 -1.44716672E-10 -1.44760995E-11  1.31142244E-02  1.22058826E-12 -6.00453722E-12
  8.14904939E-03  2.19729727E-11 -1.78616907E-12  5.03664894E-13 -7.90076209E-04
 -3.02266048E-12  7.01028301E-04  1.80303594E-11  9.95117139E-11  3.50313704E-13
  2.25903357E-04 -2.39827524E-13  5.56608742E-12  1.02953028E-10  1.66464942E-12
  1.58544937E-03 -1.03095241E-02  2.11732159E-02  1.72482975E-02  3.78440410E-02
 -3.19548281E-12 -2.92064048E-03  1.60179043E-02 -9.32942778E-12  2.21926907E-03
 -5.02677513E-04 -1.43354422E-03  2.39379451E-13  4.40637956E-04 -3.90538814E-13
 -1.22327323E-02 -3.76144981E-03 -1.60099391E-04 -2.39846990E-13 -1.07547063E-03
  2.97893745E-02  2.48839500E-03 -3.35366569E-03 -2.23712645E-12  4.91333313E-03
Pure Switching                             I                1
Dipole_Data                                R   N=           3
 -7.00318582E-09 -1.74534418E-09  5.87006334E-01
Quadrupole_Data                            R   N=           6
 -9.00140600E+00  6.29548439E-15 -8.02852992E+00  4.64089662E-09  2.10273908E-09
 -9.63549204E+00
Octapole_Data                              R   N=          10
 -1.89596455E-08 -2.66199235E-09 -4.37954467E-09 -5.43193231E-09  1.71805180E+00
 -8.69982215E-14  1.50244435E+00 -6.82990142E-09 -1.81736544E-09  4.69498688E+00
Hexadecapole_Data                          R   N=          15
 -2.28807902E+01  1.49768633E-13 -5.31959549E+00  1.02108538E-13 -9.26976688E+00
  1.07696886E-08  6.08537785E-10  2.56859687E-09  1.21965322E-09 -6.75791701E+00
  4.50780053E-14 -4.50902333E+00  8.94070234E-09  1.33079169E-09 -1.80063759E+01
