Jobname.Temp
SP        R                             3-21G               
Number of atoms                            I                3
Charge                                     I                0
Multiplicity                               I                1
Number of electrons                        I               10
Number of alpha electrons                  I                5
Number of beta electrons                   I                5
Atomic numbers                             I   N=           3
           1           8           1
Current cartesian coordinates              R   N=           9
  1.45091456E+00 -8.48022682E-01 -8.31390124E-17 -3.05249159E-06  2.12007901E-01
  2.08166817E-17 -1.45089014E+00 -8.48040523E-01 -4.71844785E-16
Nuclear charges                            R   N=           3
  1.00000000E+00  8.00000000E+00  1.00000000E+00
Number of basis functions                  I               13
Number of contracted shells                I                7
Number of primitive shells                 I               12
Highest angular momentum                   I                1
Largest degree of contraction              I                3
Shell types                                I   N=           7
           0           0           0          -1          -1           0
           0
Number of primitives per shell             I   N=           7
           2           1           3           2           1           2
           1
Shell to atom map                          I   N=           7
           1           1           2           2           2           3
           3
Primitive exponents                        R   N=          12
  5.44717800E+00  8.24547000E-01  1.83192000E-01  3.22037000E+02  4.84308000E+01
  1.04206000E+01  7.40294000E+00  1.57620000E+00  3.73684000E-01  5.44717800E+00
  8.24547000E-01  1.83192000E-01
Contraction coefficients                   R   N=          12
  1.56284981E-01  9.04690888E-01  1.00000000E+00  5.92393934E-02  3.51499961E-01
  7.07657921E-01 -4.04453583E-01  1.22156176E+00  1.00000000E+00  1.56284981E-01
  9.04690888E-01  1.00000000E+00
P(S=P) Contraction coefficients            R   N=          12
  0.00000000E+00  0.00000000E+00  0.00000000E+00  0.00000000E+00  0.00000000E+00
  0.00000000E+00  2.44586107E-01  8.53955373E-01  1.00000000E+00  0.00000000E+00
  0.00000000E+00  0.00000000E+00
Coordinates of each shell                  R   N=          21
  1.45091456E+00 -8.48022682E-01 -8.31390124E-17  1.45091456E+00 -8.48022682E-01
 -8.31390124E-17 -3.05249159E-06  2.12007901E-01  2.08166817E-17 -3.05249159E-06
  2.12007901E-01  2.08166817E-17 -3.05249159E-06  2.12007901E-01  2.08166817E-17
 -1.45089014E+00 -8.48040523E-01 -4.71844785E-16 -1.45089014E+00 -8.48040523E-01
 -4.71844785E-16
Overlap Matrix                             R   N=          91
  1.00000000E+00  6.45898940E-01  1.00000000E+00  2.35809929E-02  6.13476285E-02
  1.00000000E+00  1.65399909E-01  3.04665194E-01  2.09214610E-01  1.00000000E+00
  1.68778545E-01  9.54896658E-02  1.17819442E-21  1.10931930E-21  1.00000000E+00
 -1.23308462E-01 -6.97641033E-02 -1.41866688E-17 -1.39739964E-17  0.00000000E+00
  1.00000000E+00 -1.20926858E-17 -6.84166656E-18 -2.03369292E-35  1.07371014E-34
  0.00000000E+00  3.23988782E-49  1.00000000E+00  3.69056254E-01  6.12473930E-01
  1.83087458E-01  7.40016111E-01  4.76551832E-22  0.00000000E+00 -4.61476937E-33
  1.00000000E+00  4.58116867E-01  3.57404988E-01  8.15525369E-23  5.00348632E-22
  4.98766677E-01  0.00000000E+00 -2.38947536E-54  0.00000000E+00  1.00000000E+00
 -3.34697082E-01 -2.61117664E-01  8.68225989E-19  0.00000000E+00  0.00000000E+00
  4.98766677E-01  0.00000000E+00  0.00000000E+00  0.00000000E+00  1.00000000E+00
 -3.28232676E-17 -2.56074386E-17 -3.96179392E-36 -3.21422922E-33 -2.38947536E-54
  0.00000000E+00  4.98766677E-01 -3.76740852E-33  0.00000000E+00  0.00000000E+00
  1.00000000E+00  2.58069347E-02  1.80895926E-01  2.35819150E-02  1.65404392E-01
 -1.68779899E-01 -1.23314121E-01 -5.73106989E-17  3.69061152E-01 -4.58113343E-01
 -3.34707182E-01 -1.55556414E-16  1.00000000E+00  1.80895926E-01  4.62420137E-01
  6.13481901E-02  3.04667703E-01 -9.54884555E-02 -6.97658610E-02 -3.24239447E-17
  6.12477751E-01 -3.57399699E-01 -2.61123688E-01 -1.21358210E-16  6.45898940E-01
  1.00000000E+00
Core Hamiltonian Matrix                    R   N=          91
 -4.96424149E+00 -3.55840460E+00 -4.64838958E+00 -8.51523372E-01 -2.17188530E+00
 -3.28869397E+01 -1.81778328E+00 -3.32875708E+00 -7.70731753E+00 -1.01844837E+01
 -1.52583848E+00 -8.49597854E-01  4.12131398E-08  2.67768997E-07 -8.78536515E+00
  1.13140109E+00  6.79538057E-01  2.37155113E-02  1.55391589E-01 -1.11332122E-06
 -8.74471805E+00 -7.74770557E-18 -4.43721455E-18  0.00000000E+00  0.00000000E+00
  0.00000000E+00  0.00000000E+00 -8.69817953E+00 -2.68593840E+00 -4.40083513E+00
 -6.42879385E+00 -8.07684895E+00  2.08078487E-07  1.48288121E-01  0.00000000E+00
 -8.32522240E+00 -2.59684717E+00 -1.77373452E+00  5.83113221E-09  1.28691391E-07
 -4.26867867E+00 -9.63818589E-07  0.00000000E+00 -7.94335869E-07 -5.41602656E+00
  1.92255597E+00  1.42809281E+00  3.35544155E-03  9.39405814E-02 -9.63818589E-07
 -4.23128413E+00  0.00000000E+00  2.43600927E-01 -1.67455793E-06 -5.29772225E+00
 -2.83925146E-17 -1.32405345E-17  0.00000000E+00  0.00000000E+00  0.00000000E+00
  0.00000000E+00 -4.18846959E+00  0.00000000E+00  0.00000000E+00  0.00000000E+00
 -5.16227082E+00 -2.63026883E-01 -1.23869243E+00 -8.51556132E-01 -1.81783298E+00
  1.52585030E+00  1.13145249E+00 -3.67203006E-17 -2.68598505E+00  2.59683335E+00
  1.92261842E+00 -1.34559242E-16 -4.96427609E+00 -1.23868621E+00 -2.65801104E+00
 -2.17190511E+00 -3.32878476E+00  8.49587497E-01  6.79554476E-01 -2.10288838E-17
 -4.40086549E+00  1.77370707E+00  1.42812400E+00 -6.27494363E-17 -3.55842528E+00
 -4.64840707E+00
SCF Energy                                 R     -7.558546928692195E+01
EOMEE transition A' Excitation Energies    R   N=           2
  4.15931613E-01  5.03748729E-01
Number of Active Occ                       I                8
Number of Active Vir                       I               16
Alpha Amplitudes                           R   N=           4
  6.85185943E-01  6.85185943E-01  6.83853151E-01  6.83853151E-01
Alpha J Indexes                            I   N=           3
           0           2           4
Alpha I Indexes                            I   N=           4
          32         104          33         105
EOMEE transition A" Excitation Energies    R   N=           2
  3.22997391E-01  4.06006447E-01
Number of Active Occ                       I                8
Number of Active Vir                       I               16
Alpha Amplitudes                           R   N=           4
  6.90176892E-01  6.90176892E-01  6.88697500E-01  6.88697500E-01
Alpha J Indexes                            I   N=           3
           0           2           4
Alpha I Indexes                            I   N=           4
          48         120          49         121
Number of independent functions            I               13
Alpha MO coefficients                      R   N=         169
  2.46820962E-03  7.05607576E-03  9.83223294E-01  9.59456631E-02  1.45125711E-08
 -3.45876868E-03 -1.88563093E-16 -3.81792788E-02  2.91542284E-09  6.54293421E-03
  7.14351418E-17  2.46819573E-03  7.05624880E-03  1.18512241E-01  1.86261185E-02
 -2.29333351E-01  2.17665508E-01 -8.07688690E-07 -8.24299473E-02 -3.39003693E-17
  7.05503596E-01  1.01258514E-07 -9.09562967E-02 -3.03816804E-16  1.18515132E-01
  1.86255993E-02  2.35841805E-01  1.77318051E-01 -1.10420939E-06  6.72294085E-07
  3.98487432E-01  6.22392770E-06  3.52449911E-16  5.70623606E-06  3.66227633E-01
  5.02602774E-06  5.36240943E-17 -2.35844024E-01 -1.77316520E-01 -1.27247993E-01
 -1.01524384E-01 -8.63547909E-02  8.00679920E-02 -5.49280753E-06  4.46138251E-01
  2.59592560E-16  3.96620787E-01 -6.62128870E-06  5.15761859E-01  7.79560156E-16
 -1.27246191E-01 -1.01520509E-01  2.04332819E-16 -6.79770629E-16 -1.96159751E-16
  1.20339294E-17 -3.70505703E-16 -7.10162854E-16  5.20499163E-01 -4.19494592E-17
 -4.15216818E-16 -6.53255336E-16  6.32847822E-01 -6.41658622E-17  4.27772540E-16
  4.84857708E-02  8.70556426E-01  1.11018814E-01 -3.53781088E-02 -6.65815861E-06
  2.02543777E-01  2.64835807E-16 -1.06355311E+00 -1.42752607E-05  4.52421352E-01
  1.08416802E-16  4.84834626E-02  8.70535608E-01 -2.97293135E-02 -1.18254606E+00
  1.60651731E-06 -2.71264403E-07  3.00169019E-01  4.29600287E-06 -7.03904729E-17
 -2.02359212E-05  7.80365303E-01  1.16127600E-05 -2.01925457E-16  2.97276897E-02
  1.18257458E+00  9.74228234E-01 -6.55664862E-01  2.34545410E-06 -4.82754037E-06
 -1.93766927E-01  9.68478216E-06 -1.82888363E-16  4.72630432E-06 -4.86119820E-01
  1.70625871E-06  6.83819332E-16 -9.74147890E-01  6.55614386E-01  9.87624045E-01
 -4.80403610E-01  6.90835880E-02 -9.15541866E-02  4.94571674E-06  2.52332214E-01
  2.18399574E-15 -1.39256595E-01  3.02554072E-05  3.15743243E-01 -1.61779411E-15
  9.87712542E-01 -4.80446256E-01 -4.13159380E-16  2.91100360E-15  5.55167114E-16
 -3.42352627E-15  2.47574731E-15 -9.14321589E-15  1.02967358E+00  2.02561971E-15
 -3.62336061E-15  8.25738221E-15 -9.64702384E-01 -1.53935149E-15  1.24371388E-16
 -2.32999348E-01 -1.01849226E-01 -4.20504685E-02  1.19511829E-01 -1.29667059E-06
  1.01604224E+00  9.21078392E-15  1.80409030E-01 -1.51023374E-06 -1.13674480E+00
 -9.06469841E-15 -2.32998052E-01 -1.01862975E-01  1.50204001E-01  5.13399187E-01
  2.52800966E-07 -1.87725304E-06  1.06763460E+00  2.38704558E-06 -2.46590847E-15
  4.29246582E-06 -1.42094104E+00 -4.59409745E-06  2.99672046E-15 -1.50194329E-01
 -5.13405235E-01  2.70381587E-01  3.69827845E-01 -8.54008611E-02  1.64401786E+00
  1.49192044E-06 -1.49418641E-01  2.83249476E-15 -2.00088149E+00  1.21931250E-07
  4.69047229E-01 -2.50648792E-15  2.70381791E-01  3.69838757E-01
Alpha Orbital Energies                     R   N=          13
 -2.04238965E+01 -1.32882269E+00 -6.94346980E-01 -5.31994980E-01 -4.77987150E-01
  2.66181534E-01  3.65658664E-01  1.21532953E+00  1.29654582E+00  1.78417216E+00
  1.85891260E+00  2.02326343E+00  3.11205466E+00
Total SCF Density                          R   N=          91
  1.71729304E-01  1.13925245E-01  8.42912244E-02 -2.75275895E-02  2.28660580E-02
  2.05355796E+00  3.16890168E-02 -6.79494187E-03  7.50075920E-02  1.25989454E-01
  1.87961197E-01  1.41319115E-01  4.67631467E-07 -6.92621752E-07  3.17584467E-01
 -1.33092448E-01 -9.37051254E-02 -4.60459627E-02  3.48947675E-02  1.92265922E-07
  4.11691997E-01  3.03923661E-16 -6.39282469E-16 -6.04287153E-16  3.15638012E-18
 -1.04804899E-16 -5.00752410E-16  5.41838757E-01  6.60974488E-02 -5.47885430E-02
 -4.67168730E-01  3.63314584E-01 -9.50159294E-07  2.37850267E-01  1.28819058E-16
  1.31300206E+00  1.72745281E-01  1.29878888E-01  2.94065135E-07 -5.23240822E-07
  2.91874218E-01 -1.36598534E-06 -1.74089665E-16 -9.30064950E-07  2.68245358E-01
 -1.52783523E-01 -1.08019018E-01 -3.44920597E-02  4.42514681E-02 -1.51322481E-06
  4.75151972E-01 -4.08558894E-16  2.80284151E-01 -3.16705790E-06  5.48652305E-01
  1.38624484E-17 -1.00996417E-15 -1.03092127E-16  2.15139032E-17 -4.26218470E-16
 -1.53673103E-16  6.58793523E-01  1.31142510E-16 -4.86271251E-16  3.35157889E-17
  8.00992731E-01 -5.07569442E-02 -5.33518378E-02 -2.75282122E-02  3.16899269E-02
 -1.87960553E-01 -1.33097188E-01 -3.08073529E-16  6.60975750E-02 -1.72743488E-01
 -1.52786931E-01 -3.76561563E-16  1.71731850E-01 -5.33511785E-02 -4.14758010E-02
  2.28667505E-02 -6.79499106E-03 -1.41315724E-01 -9.37059982E-02  2.63688251E-16
 -5.47902626E-02 -1.29875070E-01 -1.08018489E-01  3.53820865E-16  1.13923942E-01
  8.42885310E-02
Pure Switching                             I                1
Dipole_Data                                R   N=           3
  2.37552719E-05 -2.38452330E+00  1.74511315E-15
Quadrupole_Data                            R   N=           6
 -3.99509810E+00  7.96840707E-06 -5.87396644E+00  2.36912894E-15  2.19839298E-16
 -6.80341119E+00
Octapole_Data                              R   N=          10
  3.45177367E-05 -1.18320153E+00 -6.92385539E-06 -1.20904308E+00  4.65403052E-16
 -4.42442788E-17  5.29739771E-16 -1.98854320E-06 -3.15904415E-01  1.69648165E-15
Hexadecapole_Data                          R   N=          15
 -5.26069741E+00 -6.37281298E-06 -1.47610154E+00  1.57798032E-05 -5.18607844E+00
  1.36868221E-15  2.38649983E-17  4.60590599E-16 -2.88029524E-16 -1.81557590E+00
  2.95074536E-06 -1.59802659E+00  1.14556217E-15 -3.58938642E-16 -4.16364016E+00
