Jobname.Temp
FORCE     R                             cc-pVDZ             
Number of atoms                            I                3
Charge                                     I                0
Multiplicity                               I                1
Number of electrons                        I               10
Number of alpha electrons                  I                5
Number of beta electrons                   I                5
Atomic numbers                             I   N=           3
           8           1           1
Current cartesian coordinates              R   N=           9
  0.00000000E+00  0.00000000E+00  2.45244877E-01 -1.41946211E+00  0.00000000E+00
 -8.76379388E-01  1.41946211E+00  0.00000000E+00 -8.76379388E-01
Nuclear charges                            R   N=           3
  8.00000000E+00  1.00000000E+00  1.00000000E+00
Number of basis functions                  I               24
Number of contracted shells                I               12
Number of primitive shells                 I               30
Highest angular momentum                   I                2
Largest degree of contraction              I                7
Shell types                                I   N=          12
           0           0           0           1           1          -2
           0           0           1           0           0           1
Number of primitives per shell             I   N=          12
           7           7           1           3           1           1
           3           1           1           3           1           1
Shell to atom map                          I   N=          12
           1           1           1           1           1           1
           2           2           2           3           3           3
Primitive exponents                        R   N=          30
  1.17200000E+04  1.75900000E+03  4.00800000E+02  1.13700000E+02  3.70300000E+01
  1.32700000E+01  5.02500000E+00  1.17200000E+04  1.75900000E+03  1.13700000E+02
  3.70300000E+01  1.32700000E+01  5.02500000E+00  1.01300000E+00  3.02300000E-01
  1.77000000E+01  3.85400000E+00  1.04600000E+00  2.75300000E-01  1.18500000E+00
  1.30100000E+01  1.96200000E+00  4.44600000E-01  1.22000000E-01  7.27000000E-01
  1.30100000E+01  1.96200000E+00  4.44600000E-01  1.22000000E-01  7.27000000E-01
Contraction coefficients                   R   N=          30
  7.11859989E-04  5.48520206E-03  2.79099247E-02  1.05133208E-01  2.84002488E-01
  4.51673950E-01  2.73208124E-01 -3.13436252E-07 -6.17665315E-05 -4.15726173E-03
 -1.41000865E-02 -1.26138482E-01 -1.09614593E-01  1.09868833E+00  1.00000000E+00
  6.26791663E-02  3.33536566E-01  7.41239642E-01  1.00000000E+00  1.00000000E+00
  3.34987264E-02  2.34800801E-01  8.13682958E-01  1.00000000E+00  1.00000000E+00
  3.34987264E-02  2.34800801E-01  8.13682958E-01  1.00000000E+00  1.00000000E+00
Coordinates of each shell                  R   N=          36
  0.00000000E+00  0.00000000E+00  2.45244877E-01  0.00000000E+00  0.00000000E+00
  2.45244877E-01  0.00000000E+00  0.00000000E+00  2.45244877E-01  0.00000000E+00
  0.00000000E+00  2.45244877E-01  0.00000000E+00  0.00000000E+00  2.45244877E-01
  0.00000000E+00  0.00000000E+00  2.45244877E-01 -1.41946211E+00  0.00000000E+00
 -8.76379388E-01 -1.41946211E+00  0.00000000E+00 -8.76379388E-01 -1.41946211E+00
  0.00000000E+00 -8.76379388E-01  1.41946211E+00  0.00000000E+00 -8.76379388E-01
  1.41946211E+00  0.00000000E+00 -8.76379388E-01  1.41946211E+00  0.00000000E+00
 -8.76379388E-01
Overlap Matrix                             R   N=         300
  1.00000000E+00  2.14476014E-01  1.00000000E+00  1.83816867E-01  7.92109402E-01
  1.00000000E+00  0.00000000E+00  0.00000000E+00  0.00000000E+00  1.00000000E+00
  0.00000000E+00  0.00000000E+00  0.00000000E+00  0.00000000E+00  1.00000000E+00
 -8.15189715E-18 -4.96467587E-17 -1.84529225E-17  0.00000000E+00  0.00000000E+00
  1.00000000E+00  0.00000000E+00  0.00000000E+00  0.00000000E+00  5.01271483E-01
  0.00000000E+00  0.00000000E+00  1.00000000E+00  0.00000000E+00  0.00000000E+00
  0.00000000E+00  0.00000000E+00  5.01271483E-01  0.00000000E+00  0.00000000E+00
  1.00000000E+00  1.07718051E-18 -2.46361912E-17 -2.90784214E-17  0.00000000E+00
  0.00000000E+00  5.01271483E-01  0.00000000E+00  0.00000000E+00  1.00000000E+00
  0.00000000E+00  0.00000000E+00  0.00000000E+00  0.00000000E+00  0.00000000E+00
  1.61372145E-17  0.00000000E+00  0.00000000E+00 -3.77645449E-17  1.00000000E+00
  0.00000000E+00  0.00000000E+00  0.00000000E+00  1.39752377E-17  0.00000000E+00
  0.00000000E+00 -3.27050553E-17  0.00000000E+00  0.00000000E+00  0.00000000E+00
  1.00000000E+00  0.00000000E+00  0.00000000E+00  0.00000000E+00  0.00000000E+00
  1.39752377E-17  0.00000000E+00  0.00000000E+00 -3.27050553E-17  0.00000000E+00
  0.00000000E+00  0.00000000E+00  1.00000000E+00  0.00000000E+00  0.00000000E+00
  0.00000000E+00  0.00000000E+00  0.00000000E+00  0.00000000E+00  0.00000000E+00
  0.00000000E+00  0.00000000E+00  0.00000000E+00  0.00000000E+00  0.00000000E+00
  1.00000000E+00  0.00000000E+00  0.00000000E+00  0.00000000E+00  0.00000000E+00
  0.00000000E+00  0.00000000E+00  0.00000000E+00  0.00000000E+00  0.00000000E+00
  0.00000000E+00  0.00000000E+00  0.00000000E+00  0.00000000E+00  1.00000000E+00
  4.98629718E-02  2.99361237E-01  4.97137471E-01 -2.21323262E-01  0.00000000E+00
 -1.74884232E-01 -4.88347373E-01  0.00000000E+00 -3.85880158E-01  1.76692487E-02
  1.94428885E-01  0.00000000E+00  1.23028916E-01  0.00000000E+00  1.00000000E+00
  6.49299136E-02  3.55181628E-01  6.48012865E-01 -8.32904941E-02  0.00000000E+00
 -6.58141127E-02 -3.07346359E-01  0.00000000E+00 -2.42857581E-01  1.84646308E-03
  2.03181111E-02  0.00000000E+00  1.28567069E-02  0.00000000E+00  6.84860251E-01
  1.00000000E+00  8.23588157E-02  3.54395315E-01  3.07280567E-01 -1.58515423E-01
  0.00000000E+00 -2.80080002E-01  7.65036345E-02  0.00000000E+00 -2.49039520E-01
  1.76767727E-01  1.60984247E-01  0.00000000E+00 -2.30167598E-02  0.00000000E+00
 -2.98375835E-16  0.00000000E+00  1.00000000E+00  0.00000000E+00  0.00000000E+00
  0.00000000E+00  0.00000000E+00  1.95937457E-01  0.00000000E+00  0.00000000E+00
  3.91673494E-01  0.00000000E+00  0.00000000E+00  0.00000000E+00 -1.97358809E-01
  0.00000000E+00 -2.49765773E-01  0.00000000E+00  0.00000000E+00  0.00000000E+00
  1.00000000E+00  6.50779232E-02  2.80034516E-01  2.42805594E-01 -2.80080002E-01
  0.00000000E+00 -2.53749152E-02 -2.49039520E-01  0.00000000E+00  1.94888553E-01
 -2.02157947E-01  3.33881513E-02  0.00000000E+00  1.79171528E-01  0.00000000E+00
  3.72169566E-17  0.00000000E+00  0.00000000E+00  0.00000000E+00  1.00000000E+00
  4.98629718E-02  2.99361237E-01  4.97137471E-01  2.21323262E-01  0.00000000E+00
 -1.74884232E-01  4.88347373E-01  0.00000000E+00 -3.85880158E-01  1.76692487E-02
 -1.94428885E-01  0.00000000E+00  1.23028916E-01  0.00000000E+00  1.24820807E-01
  3.11382429E-01  1.64526186E-01  0.00000000E+00  5.17692294E-19  1.00000000E+00
  6.49299136E-02  3.55181628E-01  6.48012865E-01  8.32904941E-02  0.00000000E+00
 -6.58141127E-02  3.07346359E-01  0.00000000E+00 -2.42857581E-01  1.84646308E-03
 -2.03181111E-02  0.00000000E+00  1.28567069E-02  0.00000000E+00  3.11382429E-01
  6.11629279E-01  1.76135312E-01  0.00000000E+00  0.00000000E+00  6.84860251E-01
  1.00000000E+00 -8.23588157E-02 -3.54395315E-01 -3.07280567E-01 -1.58515423E-01
  0.00000000E+00  2.80080002E-01  7.65036345E-02  0.00000000E+00  2.49039520E-01
 -1.76767727E-01  1.60984247E-01  0.00000000E+00  2.30167598E-02  0.00000000E+00
 -1.64526186E-01 -1.76135312E-01 -2.59566896E-01  0.00000000E+00  0.00000000E+00
  2.98375835E-16  0.00000000E+00  1.00000000E+00  0.00000000E+00  0.00000000E+00
  0.00000000E+00  0.00000000E+00  1.95937457E-01  0.00000000E+00  0.00000000E+00
  3.91673494E-01  0.00000000E+00  0.00000000E+00  0.00000000E+00 -1.97358809E-01
  0.00000000E+00  2.49765773E-01  0.00000000E+00  0.00000000E+00  0.00000000E+00
  5.34170723E-02  0.00000000E+00  0.00000000E+00  0.00000000E+00  0.00000000E+00
  1.00000000E+00  6.50779232E-02  2.80034516E-01  2.42805594E-01  2.80080002E-01
  0.00000000E+00 -2.53749152E-02  2.49039520E-01  0.00000000E+00  1.94888553E-01
 -2.02157947E-01 -3.33881513E-02  0.00000000E+00  1.79171528E-01  0.00000000E+00
  5.17692294E-19  0.00000000E+00  0.00000000E+00  0.00000000E+00  5.34170723E-02
  3.72169566E-17  0.00000000E+00  0.00000000E+00  0.00000000E+00  1.00000000E+00
Core Hamiltonian Matrix                    R   N=         300
 -3.30445399E+01 -6.61317533E+00 -9.72110741E+00 -5.84006252E+00 -7.64458433E+00
 -7.61953966E+00  0.00000000E+00  0.00000000E+00  0.00000000E+00 -8.56084937E+00
  0.00000000E+00  0.00000000E+00  0.00000000E+00  0.00000000E+00 -8.45617332E+00
  2.85147649E-02  1.85793272E-01  1.80197019E-01  0.00000000E+00  0.00000000E+00
 -8.52153068E+00  0.00000000E+00  0.00000000E+00  0.00000000E+00 -3.84708081E+00
  0.00000000E+00  0.00000000E+00 -4.82888973E+00  0.00000000E+00  0.00000000E+00
  0.00000000E+00  0.00000000E+00 -3.75146396E+00  0.00000000E+00  0.00000000E+00
 -4.60664963E+00  4.13626348E-03  1.19576597E-01  2.45281453E-01  0.00000000E+00
  0.00000000E+00 -3.81116496E+00  0.00000000E+00  0.00000000E+00 -4.74541133E+00
 -3.10792391E-04 -1.17381834E-02 -1.58876329E-02  0.00000000E+00  0.00000000E+00
  1.50697026E-01  0.00000000E+00  0.00000000E+00  1.30335279E-01 -4.34601572E+00
  0.00000000E+00  0.00000000E+00  0.00000000E+00  2.12782883E-01  0.00000000E+00
  0.00000000E+00  2.21581808E-01  0.00000000E+00  0.00000000E+00  0.00000000E+00
 -4.49137644E+00  0.00000000E+00  0.00000000E+00  0.00000000E+00  0.00000000E+00
  1.25051555E-01  0.00000000E+00  0.00000000E+00  1.05664943E-01  0.00000000E+00
  0.00000000E+00  0.00000000E+00 -4.29676213E+00 -2.16401113E-03 -8.17316004E-02
 -1.10623733E-01  0.00000000E+00  0.00000000E+00  4.38656641E-02  0.00000000E+00
  0.00000000E+00  5.79584324E-02  4.55388404E-02  0.00000000E+00  0.00000000E+00
 -4.37247149E+00  0.00000000E+00  0.00000000E+00  0.00000000E+00  0.00000000E+00
  0.00000000E+00  0.00000000E+00  0.00000000E+00  0.00000000E+00  0.00000000E+00
  0.00000000E+00  0.00000000E+00  0.00000000E+00  0.00000000E+00 -4.33032744E+00
 -1.58749556E+00 -2.85244867E+00 -3.46748112E+00  1.74935294E+00  0.00000000E+00
  1.42521631E+00  2.50705607E+00  0.00000000E+00  2.03711818E+00 -1.39971891E-01
 -1.22150023E+00  0.00000000E+00 -7.73501141E-01  0.00000000E+00 -5.13619647E+00
 -2.06492412E+00 -3.36397318E+00 -4.22043400E+00  6.48690792E-01  0.00000000E+00
  5.93370718E-01  1.32966098E+00  0.00000000E+00  1.20728237E+00 -3.68795444E-02
 -1.64076113E-01  0.00000000E+00 -1.45198413E-01  0.00000000E+00 -3.57242221E+00
 -4.21970675E+00 -2.61876974E+00 -3.45405724E+00 -2.87495682E+00  1.24416071E+00
  0.00000000E+00  2.21923374E+00  4.85152955E-02  0.00000000E+00  1.60378753E+00
 -9.85002837E-01 -7.56410673E-01  0.00000000E+00  1.79258454E-01  0.00000000E+00
 -1.22658645E+00 -1.05172092E+00 -4.21180697E+00  0.00000000E+00  0.00000000E+00
  0.00000000E+00  0.00000000E+00 -1.48814335E+00  0.00000000E+00  0.00000000E+00
 -1.90945546E+00  0.00000000E+00  0.00000000E+00  0.00000000E+00  1.07210756E+00
  0.00000000E+00  1.32549356E+00  0.00000000E+00  0.00000000E+00  0.00000000E+00
 -3.38597655E+00 -2.06800841E+00 -2.69855681E+00 -2.21707696E+00  2.14998352E+00
  0.00000000E+00  2.39184288E-01  1.52141267E+00  0.00000000E+00 -6.93673678E-01
  1.08147803E+00 -1.10851023E-01  0.00000000E+00 -8.99043001E-01  0.00000000E+00
 -9.07553454E-01 -7.73378807E-01 -6.16933130E-01  0.00000000E+00 -3.87346203E+00
 -1.58749556E+00 -2.85244867E+00 -3.46748112E+00 -1.74935294E+00  0.00000000E+00
  1.42521631E+00 -2.50705607E+00  0.00000000E+00  2.03711818E+00 -1.39971891E-01
  1.22150023E+00  0.00000000E+00 -7.73501141E-01  0.00000000E+00 -9.65202107E-01
 -1.90717538E+00 -1.32202561E+00  0.00000000E+00 -2.22165963E-01 -5.13619647E+00
 -2.06492412E+00 -3.36397318E+00 -4.22043400E+00 -6.48690792E-01  0.00000000E+00
  5.93370718E-01 -1.32966098E+00  0.00000000E+00  1.20728237E+00 -3.68795444E-02
  1.64076113E-01  0.00000000E+00 -1.45198413E-01  0.00000000E+00 -1.90717538E+00
 -2.98170234E+00 -1.49217870E+00  0.00000000E+00 -4.79800787E-01 -3.57242221E+00
 -4.21970675E+00  2.61876974E+00  3.45405724E+00  2.87495682E+00  1.24416071E+00
  0.00000000E+00 -2.21923374E+00  4.85152955E-02  0.00000000E+00 -1.60378753E+00
  9.85002837E-01 -7.56410673E-01  0.00000000E+00 -1.79258454E-01  0.00000000E+00
  1.32202561E+00  1.49217870E+00  2.01961328E+00  0.00000000E+00  3.37135390E-01
  1.22658645E+00  1.05172092E+00 -4.21180697E+00  0.00000000E+00  0.00000000E+00
  0.00000000E+00  0.00000000E+00 -1.48814335E+00  0.00000000E+00  0.00000000E+00
 -1.90945546E+00  0.00000000E+00  0.00000000E+00  0.00000000E+00  1.07210756E+00
  0.00000000E+00 -1.32549356E+00  0.00000000E+00  0.00000000E+00  0.00000000E+00
 -3.66385641E-01  0.00000000E+00  0.00000000E+00  0.00000000E+00  0.00000000E+00
 -3.38597655E+00 -2.06800841E+00 -2.69855681E+00 -2.21707696E+00 -2.14998352E+00
  0.00000000E+00  2.39184288E-01 -1.52141267E+00  0.00000000E+00 -6.93673678E-01
  1.08147803E+00  1.10851023E-01  0.00000000E+00 -8.99043001E-01  0.00000000E+00
 -2.22165963E-01 -4.79800787E-01 -3.37135390E-01  0.00000000E+00 -4.91492821E-01
 -9.07553454E-01 -7.73378807E-01  6.16933130E-01  0.00000000E+00 -3.87346203E+00
SCF Energy                                 R     -7.602677459111561E+01
EOMEE A Excitation Energies                R   N=           2
  3.00361905E-01  3.76170267E-01
Oscillator Strengths                       R   N=           2
  0.00000000E+00  0.00000000E+00
Alpha Amplitudes                           R   N=         760
 -9.26873690E-13 -5.52128538E-17 -2.35222290E-17 -9.11111533E-13  2.10651600E-12
 -3.45198683E-04  3.91065758E-16  8.81599309E-14 -7.14601533E-16 -3.65412806E-05
  5.89857046E-14 -8.96263173E-19  7.36474452E-17 -1.14637785E-12  1.12197094E-04
 -1.50737632E-13 -9.89708194E-14 -2.20634691E-13 -6.24138644E-18  0.00000000E+00
  0.00000000E+00  0.00000000E+00  0.00000000E+00  0.00000000E+00  0.00000000E+00
  0.00000000E+00  0.00000000E+00  0.00000000E+00  0.00000000E+00  0.00000000E+00
  0.00000000E+00  0.00000000E+00  0.00000000E+00  0.00000000E+00  0.00000000E+00
  0.00000000E+00  0.00000000E+00  0.00000000E+00  3.50167604E-10 -1.58378274E-15
  9.92499395E-15  1.12033467E-10 -3.11415496E-12 -5.48520092E-05  3.01565996E-15
 -4.74219317E-11  4.10169012E-12  1.36489910E-03  6.07708768E-11 -4.78819809E-16
 -3.97826397E-15  3.44727469E-11 -4.34079305E-04 -9.93963132E-14  3.12346761E-12
 -6.35665013E-12  4.11277854E-16  0.00000000E+00  0.00000000E+00  0.00000000E+00
  0.00000000E+00  0.00000000E+00  0.00000000E+00  0.00000000E+00  0.00000000E+00
  0.00000000E+00  0.00000000E+00  0.00000000E+00  0.00000000E+00  0.00000000E+00
  0.00000000E+00  0.00000000E+00  0.00000000E+00  0.00000000E+00  0.00000000E+00
  0.00000000E+00  2.85589592E-13 -3.89947303E-10  2.21283136E-10  6.25664830E-14
 -1.93720739E-15 -1.55812539E-12  1.21409421E-10 -8.18909617E-16  4.18165486E-03
 -1.53934683E-12  1.07066638E-14 -6.35347231E-12 -3.46130729E-11  7.58753061E-15
  5.56131307E-13  4.29814302E-03 -2.46866984E-15 -3.64310354E-15  6.69181002E-12
  0.00000000E+00  0.00000000E+00  0.00000000E+00  0.00000000E+00  0.00000000E+00
  0.00000000E+00  0.00000000E+00  0.00000000E+00  0.00000000E+00  0.00000000E+00
  0.00000000E+00  0.00000000E+00  0.00000000E+00  0.00000000E+00  0.00000000E+00
  0.00000000E+00  0.00000000E+00  0.00000000E+00  0.00000000E+00 -1.87259777E-09
  1.84277387E-14 -3.53648075E-14 -3.18518773E-10  2.28938985E-10  2.12990909E-03
  8.03740123E-16  4.68814871E-11 -2.63170459E-12 -3.05962694E-03 -1.75011531E-11
 -9.26955074E-16  4.32343204E-15 -2.11694325E-11  4.72573310E-03  3.84509474E-13
  1.39535113E-12  3.72049722E-11  1.45199224E-15  0.00000000E+00  0.00000000E+00
  0.00000000E+00  0.00000000E+00  0.00000000E+00  0.00000000E+00  0.00000000E+00
  0.00000000E+00  0.00000000E+00  0.00000000E+00  0.00000000E+00  0.00000000E+00
  0.00000000E+00  0.00000000E+00  0.00000000E+00  0.00000000E+00  0.00000000E+00
  0.00000000E+00  0.00000000E+00  6.85106609E-01 -9.95075863E-11  1.49418977E-10
  7.20771040E-02 -2.28116451E-02 -1.77889651E-11  6.10609875E-11 -1.01332428E-02
  1.27014963E-14  4.58172005E-11  2.02741445E-02  1.32405819E-12 -2.07851807E-11
  5.33790986E-03  1.04271454E-11  1.79789132E-15 -1.84449679E-03 -5.70579755E-03
  1.56539231E-12  0.00000000E+00  0.00000000E+00  0.00000000E+00  0.00000000E+00
  0.00000000E+00  0.00000000E+00  0.00000000E+00  0.00000000E+00  0.00000000E+00
  0.00000000E+00  0.00000000E+00  0.00000000E+00  0.00000000E+00  0.00000000E+00
  0.00000000E+00  0.00000000E+00  0.00000000E+00  0.00000000E+00  0.00000000E+00
  0.00000000E+00  0.00000000E+00  0.00000000E+00  0.00000000E+00  0.00000000E+00
  0.00000000E+00  0.00000000E+00  0.00000000E+00  0.00000000E+00  0.00000000E+00
  0.00000000E+00  0.00000000E+00  0.00000000E+00  0.00000000E+00  0.00000000E+00
  0.00000000E+00  0.00000000E+00  0.00000000E+00  0.00000000E+00 -9.26873690E-13
 -5.52128538E-17 -2.35222290E-17 -9.11111533E-13  2.10651600E-12 -3.45198683E-04
  3.91065758E-16  8.81599309E-14 -7.14601533E-16 -3.65412806E-05  5.89857046E-14
 -8.96263173E-19  7.36474452E-17 -1.14637785E-12  1.12197094E-04 -1.50737632E-13
 -9.89708194E-14 -2.20634691E-13 -6.24138644E-18  0.00000000E+00  0.00000000E+00
  0.00000000E+00  0.00000000E+00  0.00000000E+00  0.00000000E+00  0.00000000E+00
  0.00000000E+00  0.00000000E+00  0.00000000E+00  0.00000000E+00  0.00000000E+00
  0.00000000E+00  0.00000000E+00  0.00000000E+00  0.00000000E+00  0.00000000E+00
  0.00000000E+00  0.00000000E+00  3.50167604E-10 -1.58378274E-15  9.92499395E-15
  1.12033467E-10 -3.11415496E-12 -5.48520092E-05  3.01565996E-15 -4.74219317E-11
  4.10169012E-12  1.36489910E-03  6.07708768E-11 -4.78819809E-16 -3.97826397E-15
  3.44727469E-11 -4.34079305E-04 -9.93963132E-14  3.12346761E-12 -6.35665013E-12
  4.11277854E-16  0.00000000E+00  0.00000000E+00  0.00000000E+00  0.00000000E+00
  0.00000000E+00  0.00000000E+00  0.00000000E+00  0.00000000E+00  0.00000000E+00
  0.00000000E+00  0.00000000E+00  0.00000000E+00  0.00000000E+00  0.00000000E+00
  0.00000000E+00  0.00000000E+00  0.00000000E+00  0.00000000E+00  0.00000000E+00
  2.85589592E-13 -3.89947303E-10  2.21283136E-10  6.25664830E-14 -1.93720739E-15
 -1.55812539E-12  1.21409421E-10 -8.18909617E-16  4.18165486E-03 -1.53934683E-12
  1.07066638E-14 -6.35347231E-12 -3.46130729E-11  7.58753061E-15  5.56131307E-13
  4.29814302E-03 -2.46866984E-15 -3.64310354E-15  6.69181002E-12  0.00000000E+00
  0.00000000E+00  0.00000000E+00  0.00000000E+00  0.00000000E+00  0.00000000E+00
  0.00000000E+00  0.00000000E+00  0.00000000E+00  0.00000000E+00  0.00000000E+00
  0.00000000E+00  0.00000000E+00  0.00000000E+00  0.00000000E+00  0.00000000E+00
  0.00000000E+00  0.00000000E+00  0.00000000E+00 -1.87259777E-09  1.84277387E-14
 -3.53648075E-14 -3.18518773E-10  2.28938985E-10  2.12990909E-03  8.03740123E-16
  4.68814871E-11 -2.63170459E-12 -3.05962694E-03 -1.75011531E-11 -9.26955074E-16
  4.32343204E-15 -2.11694325E-11  4.72573310E-03  3.84509474E-13  1.39535113E-12
  3.72049722E-11  1.45199224E-15  0.00000000E+00  0.00000000E+00  0.00000000E+00
  0.00000000E+00  0.00000000E+00  0.00000000E+00  0.00000000E+00  0.00000000E+00
  0.00000000E+00  0.00000000E+00  0.00000000E+00  0.00000000E+00  0.00000000E+00
  0.00000000E+00  0.00000000E+00  0.00000000E+00  0.00000000E+00  0.00000000E+00
  0.00000000E+00  6.85106609E-01 -9.95075863E-11  1.49418977E-10  7.20771040E-02
 -2.28116451E-02 -1.77889651E-11  6.10609875E-11 -1.01332428E-02  1.27014963E-14
  4.58172005E-11  2.02741445E-02  1.32405819E-12 -2.07851807E-11  5.33790986E-03
  1.04271454E-11  1.79789132E-15 -1.84449679E-03 -5.70579755E-03  1.56539231E-12
 -4.39260392E-17 -1.82144005E-12  8.66761609E-13  2.42336911E-17  4.67188881E-17
 -2.85465734E-13  1.98307177E-12 -7.46543311E-19  2.82191558E-05 -2.30198671E-14
 -1.31893219E-16 -1.81935954E-14 -1.63144389E-12  1.08952140E-16  1.96628784E-14
  1.90299866E-04  1.62381213E-17  1.83905505E-16  9.38432053E-13  0.00000000E+00
  0.00000000E+00  0.00000000E+00  0.00000000E+00  0.00000000E+00  0.00000000E+00
  0.00000000E+00  0.00000000E+00  0.00000000E+00  0.00000000E+00  0.00000000E+00
  0.00000000E+00  0.00000000E+00  0.00000000E+00  0.00000000E+00  0.00000000E+00
  0.00000000E+00  0.00000000E+00  0.00000000E+00 -2.17477692E-14  1.47637378E-10
 -5.96428633E-11 -1.46557333E-14 -5.50508969E-16 -4.72353169E-13 -3.03068099E-11
  5.65168277E-15 -3.75306699E-03  2.45552549E-12 -9.05603449E-15  7.78352675E-12
  2.43393839E-11 -5.17522728E-15 -3.93748674E-13  9.54625219E-04  3.40646379E-16
 -2.72292379E-16 -1.76402014E-12  0.00000000E+00  0.00000000E+00  0.00000000E+00
  0.00000000E+00  0.00000000E+00  0.00000000E+00  0.00000000E+00  0.00000000E+00
  0.00000000E+00  0.00000000E+00  0.00000000E+00  0.00000000E+00  0.00000000E+00
  0.00000000E+00  0.00000000E+00  0.00000000E+00  0.00000000E+00  0.00000000E+00
  0.00000000E+00 -1.98996295E-10  3.77760101E-13 -9.56613167E-14 -1.75963154E-10
 -4.35061705E-11  3.40621607E-03 -6.10230861E-14 -2.91831654E-11  2.97757168E-12
 -1.67077633E-03 -2.29531357E-12  3.86953039E-15  1.18951598E-14 -3.56817279E-11
 -4.40354387E-05  3.77607001E-12  1.92557256E-11 -9.68951039E-12 -2.80440823E-15
  0.00000000E+00  0.00000000E+00  0.00000000E+00  0.00000000E+00  0.00000000E+00
  0.00000000E+00  0.00000000E+00  0.00000000E+00  0.00000000E+00  0.00000000E+00
  0.00000000E+00  0.00000000E+00  0.00000000E+00  0.00000000E+00  0.00000000E+00
  0.00000000E+00  0.00000000E+00  0.00000000E+00  0.00000000E+00  1.71993344E-13
 -1.73614838E-09  4.68130590E-10  4.33339569E-14 -3.20547694E-14  6.59813728E-13
  1.45536769E-10 -5.07361999E-15  5.26490997E-04 -2.77588872E-12 -1.88121351E-15
 -2.54108957E-12 -6.30514901E-11  4.56586484E-15  4.35466624E-12 -3.45963472E-04
 -1.25621925E-15 -2.01543176E-15 -9.24107127E-12  0.00000000E+00  0.00000000E+00
  0.00000000E+00  0.00000000E+00  0.00000000E+00  0.00000000E+00  0.00000000E+00
  0.00000000E+00  0.00000000E+00  0.00000000E+00  0.00000000E+00  0.00000000E+00
  0.00000000E+00  0.00000000E+00  0.00000000E+00  0.00000000E+00  0.00000000E+00
  0.00000000E+00  0.00000000E+00  1.08404808E-10  6.79681060E-01 -1.06623183E-01
  1.26292206E-10 -4.68031085E-11 -7.41710041E-14 -5.79074471E-02 -1.48824024E-11
 -7.47719155E-11 -8.99276341E-15  2.11125032E-11  5.20695601E-04  1.14951934E-02
  2.55955296E-11 -1.24459462E-15 -2.71052558E-11 -1.66130483E-12 -4.42285362E-12
 -1.55848122E-03  0.00000000E+00  0.00000000E+00  0.00000000E+00  0.00000000E+00
  0.00000000E+00  0.00000000E+00  0.00000000E+00  0.00000000E+00  0.00000000E+00
  0.00000000E+00  0.00000000E+00  0.00000000E+00  0.00000000E+00  0.00000000E+00
  0.00000000E+00  0.00000000E+00  0.00000000E+00  0.00000000E+00  0.00000000E+00
  0.00000000E+00  0.00000000E+00  0.00000000E+00  0.00000000E+00  0.00000000E+00
  0.00000000E+00  0.00000000E+00  0.00000000E+00  0.00000000E+00  0.00000000E+00
  0.00000000E+00  0.00000000E+00  0.00000000E+00  0.00000000E+00  0.00000000E+00
  0.00000000E+00  0.00000000E+00  0.00000000E+00  0.00000000E+00 -4.39260392E-17
 -1.82144005E-12  8.66761609E-13  2.42336911E-17  4.67188881E-17 -2.85465734E-13
  1.98307177E-12 -7.46543311E-19  2.82191558E-05 -2.30198671E-14 -1.31893219E-16
 -1.81935954E-14 -1.63144389E-12  1.08952140E-16  1.96628784E-14  1.90299866E-04
  1.62381213E-17  1.83905505E-16  9.38432053E-13  0.00000000E+00  0.00000000E+00
  0.00000000E+00  0.00000000E+00  0.00000000E+00  0.00000000E+00  0.00000000E+00
  0.00000000E+00  0.00000000E+00  0.00000000E+00  0.00000000E+00  0.00000000E+00
  0.00000000E+00  0.00000000E+00  0.00000000E+00  0.00000000E+00  0.00000000E+00
  0.00000000E+00  0.00000000E+00 -2.17477692E-14  1.47637378E-10 -5.96428633E-11
 -1.46557333E-14 -5.50508969E-16 -4.72353169E-13 -3.03068099E-11  5.65168277E-15
 -3.75306699E-03  2.45552549E-12 -9.05603449E-15  7.78352675E-12  2.43393839E-11
 -5.17522728E-15 -3.93748674E-13  9.54625219E-04  3.40646379E-16 -2.72292379E-16
 -1.76402014E-12  0.00000000E+00  0.00000000E+00  0.00000000E+00  0.00000000E+00
  0.00000000E+00  0.00000000E+00  0.00000000E+00  0.00000000E+00  0.00000000E+00
  0.00000000E+00  0.00000000E+00  0.00000000E+00  0.00000000E+00  0.00000000E+00
  0.00000000E+00  0.00000000E+00  0.00000000E+00  0.00000000E+00  0.00000000E+00
 -1.98996295E-10  3.77760101E-13 -9.56613167E-14 -1.75963154E-10 -4.35061705E-11
  3.40621607E-03 -6.10230861E-14 -2.91831654E-11  2.97757168E-12 -1.67077633E-03
 -2.29531357E-12  3.86953039E-15  1.18951598E-14 -3.56817279E-11 -4.40354387E-05
  3.77607001E-12  1.92557256E-11 -9.68951039E-12 -2.80440823E-15  0.00000000E+00
  0.00000000E+00  0.00000000E+00  0.00000000E+00  0.00000000E+00  0.00000000E+00
  0.00000000E+00  0.00000000E+00  0.00000000E+00  0.00000000E+00  0.00000000E+00
  0.00000000E+00  0.00000000E+00  0.00000000E+00  0.00000000E+00  0.00000000E+00
  0.00000000E+00  0.00000000E+00  0.00000000E+00  1.71993344E-13 -1.73614838E-09
  4.68130590E-10  4.33339569E-14 -3.20547694E-14  6.59813728E-13  1.45536769E-10
 -5.07361999E-15  5.26490997E-04 -2.77588872E-12 -1.88121351E-15 -2.54108957E-12
 -6.30514901E-11  4.56586484E-15  4.35466624E-12 -3.45963472E-04 -1.25621925E-15
 -2.01543176E-15 -9.24107127E-12  0.00000000E+00  0.00000000E+00  0.00000000E+00
  0.00000000E+00  0.00000000E+00  0.00000000E+00  0.00000000E+00  0.00000000E+00
  0.00000000E+00  0.00000000E+00  0.00000000E+00  0.00000000E+00  0.00000000E+00
  0.00000000E+00  0.00000000E+00  0.00000000E+00  0.00000000E+00  0.00000000E+00
  0.00000000E+00  1.08404808E-10  6.79681060E-01 -1.06623183E-01  1.26292206E-10
 -4.68031085E-11 -7.41710041E-14 -5.79074471E-02 -1.48824024E-11 -7.47719155E-11
 -8.99276341E-15  2.11125032E-11  5.20695601E-04  1.14951934E-02  2.55955296E-11
 -1.24459462E-15 -2.71052558E-11 -1.66130483E-12 -4.42285362E-12 -1.55848122E-03
Number of independent functions            I               24
Alpha MO coefficients                      R   N=         576
  9.97268782E-01  1.52420703E-02 -2.66390521E-03  1.85746470E-12 -1.08327626E-11
 -1.77456966E-03 -3.39544365E-13  4.30308789E-12  4.85658038E-04  1.74955050E-05
 -6.18944999E-14 -3.07456163E-12  1.33390225E-04  1.11032262E-15 -2.38341094E-04
  4.18827922E-04 -5.67975553E-04 -2.93109778E-13 -4.87551132E-04 -2.38341095E-04
  4.18827922E-04  5.67975554E-04 -2.93093957E-13 -4.87551133E-04 -2.03493061E-01
  4.41356175E-01  3.74903704E-01  9.27512477E-11  2.67496371E-10 -7.97715029E-02
  3.33093414E-11  5.67226153E-11  1.34305054E-02  1.39214970E-03 -4.16416381E-12
 -1.03293743E-11  2.93012274E-03  4.25997650E-15  1.94141894E-01  9.99244664E-03
  3.70446831E-02 -9.90588858E-12  2.09419757E-02  1.94141894E-01  9.99244667E-03
 -3.70446831E-02 -9.92261185E-12  2.09419757E-02  2.48782163E-11 -4.83442539E-11
 -2.98168989E-11  4.90624244E-01  5.14681972E-13  1.42456581E-10  2.23895861E-01
  2.73752423E-13  4.81634090E-11 -5.25058642E-12 -2.69829355E-02 -6.16371405E-15
  4.20097984E-12 -6.69330327E-11 -3.27276740E-01 -9.07279604E-02 -2.28493574E-02
  2.71276307E-11 -3.28893102E-02  3.27276740E-01  9.07279604E-02 -2.28493574E-02
 -2.71080533E-11  3.28893102E-02 -6.92271783E-02  1.51313010E-01  3.53078857E-01
 -2.93300106E-13 -3.33735379E-09  5.44031928E-01  4.81962387E-12 -2.22381039E-09
  3.62219997E-01 -1.80064361E-02  1.69642130E-11  2.45544022E-11 -4.55223126E-03
  8.24775656E-15 -2.08287705E-01 -4.02936147E-02 -3.20111639E-02 -1.36441929E-10
  7.13063764E-03 -2.08287706E-01 -4.02936150E-02  3.20111639E-02 -1.36424933E-10
  7.13063764E-03 -4.61464688E-10  1.13830388E-09  3.01855320E-09 -1.88074610E-14
  6.31319439E-01  1.82420524E-09  3.58248764E-14  4.95416194E-01  1.51422557E-09
 -4.41611570E-11  3.77542398E-14 -1.83198877E-02 -6.61939981E-12  6.74571163E-12
 -1.55939061E-09 -1.40204048E-09 -1.01476909E-10  3.11616022E-02  5.71965955E-11
 -1.56020804E-09 -1.40302857E-09  1.01494283E-10  3.11616022E-02  5.71845467E-11
  8.35934140E-02 -7.10944760E-02 -1.00009055E+00 -2.10303490E-10  1.01442569E-09
  1.91784142E-01 -3.60606191E-10  1.17283306E-09  3.39581857E-01 -7.87549786E-03
  1.48914787E-11 -2.30087714E-11 -9.89056945E-03 -7.04708242E-15  5.76744828E-02
  8.28303943E-01  1.73738684E-02  4.29908999E-11  1.64221736E-02  5.76744828E-02
  8.28303944E-01 -1.73738684E-02  4.29751100E-11  1.64221737E-02  5.55454976E-11
 -3.85615463E-11 -6.59502931E-10  2.83728296E-01 -2.23562456E-13  5.45344707E-11
  6.69633309E-01 -2.96334843E-13  1.41125597E-10 -1.09927067E-11 -2.11675665E-02
  4.62260524E-15  5.01447842E-12  3.30830207E-12  2.68610961E-02  1.45011399E+00
  2.06600688E-02 -1.08070995E-11  1.71200442E-02 -2.68610961E-02 -1.45011399E+00
  2.06600688E-02  1.07788214E-11 -1.71200442E-02  4.20660830E-11 -2.42496724E-10
  2.97198779E-10 -2.64448471E-01 -1.80291110E-14  3.36243644E-10 -4.61726090E-01
  2.64661250E-13  7.47286989E-11  1.74896833E-11 -1.11653586E-01  4.88863744E-15
  7.29794211E-11  3.83382240E-12 -9.44716968E-01  6.90980373E-01  7.40544224E-02
  1.19033994E-11  1.49996791E-01  9.44716969E-01 -6.90980374E-01  7.40544228E-02
 -1.18968958E-11 -1.49996791E-01  4.73808862E-02 -2.59671206E-01  3.38118229E-01
  1.81874413E-10 -1.68176128E-10  3.39477166E-01  5.28290765E-10  8.60583757E-10
 -2.39021638E-02  3.54651354E-03  1.20977769E-10 -7.53200251E-12  1.06580128E-01
 -1.19406518E-14  7.79620727E-01 -5.49490018E-01 -2.98030956E-01  5.05508767E-11
 -6.62712297E-02  7.79620725E-01 -5.49490017E-01  2.98030956E-01  5.05292641E-11
 -6.62712294E-02  4.85249039E-02 -1.24296612E-01 -7.41079155E-01 -4.43784502E-10
  4.39653025E-09 -7.47449503E-01  1.01277557E-09 -5.00315360E-09  1.28425448E+00
 -1.32040964E-02 -4.27406097E-11  6.06090652E-12  9.08380578E-03 -6.31965930E-15
  5.59993861E-01  1.06247447E-01  7.62882248E-02 -5.95948321E-11  2.52815994E-01