Jobname.Temp
SP        R                             3-21G               
Number of atoms                            I                3
Charge                                     I                0
Multiplicity                               I                1
Number of electrons                        I               10
Number of alpha electrons                  I                5
Number of beta electrons                   I                5
Atomic numbers                             I   N=           3
           1           8           1
Current cartesian coordinates              R   N=           9
  1.45091443E+00 -8.48022758E-01  1.54502179E-16 -3.02197778E-06  2.12007897E-01
  5.30330374E-17 -1.45089025E+00 -8.48040421E-01 -1.17366484E-15
Nuclear charges                            R   N=           3
  1.00000000E+00  8.00000000E+00  1.00000000E+00
Number of basis functions                  I               13
Number of contracted shells                I                7
Number of primitive shells                 I               12
Highest angular momentum                   I                1
Largest degree of contraction              I                3
Shell types                                I   N=           7
           0           0           0          -1          -1           0
           0
Number of primitives per shell             I   N=           7
           2           1           3           2           1           2
           1
Shell to atom map                          I   N=           7
           1           1           2           2           2           3
           3
Primitive exponents                        R   N=          12
  5.44717800E+00  8.24547000E-01  1.83192000E-01  3.22037000E+02  4.84308000E+01
  1.04206000E+01  7.40294000E+00  1.57620000E+00  3.73684000E-01  5.44717800E+00
  8.24547000E-01  1.83192000E-01
Contraction coefficients                   R   N=          12
  1.56284981E-01  9.04690888E-01  1.00000000E+00  5.92393934E-02  3.51499961E-01
  7.07657921E-01 -4.04453583E-01  1.22156176E+00  1.00000000E+00  1.56284981E-01
  9.04690888E-01  1.00000000E+00
P(S=P) Contraction coefficients            R   N=          12
  0.00000000E+00  0.00000000E+00  0.00000000E+00  0.00000000E+00  0.00000000E+00
  0.00000000E+00  2.44586107E-01  8.53955373E-01  1.00000000E+00  0.00000000E+00
  0.00000000E+00  0.00000000E+00
Coordinates of each shell                  R   N=          21
  1.45091443E+00 -8.48022758E-01  1.54502179E-16  1.45091443E+00 -8.48022758E-01
  1.54502179E-16 -3.02197778E-06  2.12007897E-01  5.30330374E-17 -3.02197778E-06
  2.12007897E-01  5.30330374E-17 -3.02197778E-06  2.12007897E-01  5.30330374E-17
 -1.45089025E+00 -8.48040421E-01 -1.17366484E-15 -1.45089025E+00 -8.48040421E-01
 -1.17366484E-15
Overlap Matrix                             R   N=          91
  1.00000000E+00  6.45898940E-01  1.00000000E+00  2.35809985E-02  6.13476319E-02
  1.00000000E+00  1.65399936E-01  3.04665210E-01  2.09214610E-01  1.00000000E+00
  1.68778556E-01  9.54896602E-02  2.49013136E-22  1.32254557E-21  1.00000000E+00
 -1.23308492E-01 -6.97641116E-02  1.88851300E-17 -7.17332378E-17 -9.85745118E-38
  1.00000000E+00  1.18034387E-17  6.67801870E-18  4.91302955E-34 -1.59279784E-32
 -2.18879385E-53  1.73746599E-48  1.00000000E+00  3.69056284E-01  6.12473953E-01
  1.83087458E-01  7.40016111E-01  0.00000000E+00  0.00000000E+00 -9.22953873E-33
  1.00000000E+00  4.58116854E-01  3.57404962E-01  8.15525369E-23  0.00000000E+00
  4.98766677E-01  0.00000000E+00  0.00000000E+00  0.00000000E+00  1.00000000E+00
 -3.34697132E-01 -2.61117692E-01 -5.30894239E-18  0.00000000E+00  0.00000000E+00
  4.98766677E-01  0.00000000E+00  0.00000000E+00  0.00000000E+00  1.00000000E+00
  3.20381590E-17  2.49949263E-17 -1.18674560E-33 -6.42845844E-33  0.00000000E+00
  0.00000000E+00  4.98766677E-01 -7.53481704E-33  0.00000000E+00  0.00000000E+00
  1.00000000E+00  2.58069355E-02  1.80895928E-01  2.35819114E-02  1.65404374E-01
 -1.68779897E-01 -1.23314095E-01 -1.42700230E-16  3.69061133E-01 -4.58113365E-01
 -3.34707131E-01 -3.87326238E-16  1.00000000E+00  1.80895928E-01  4.62420140E-01
  6.13481879E-02  3.04667693E-01 -9.54884620E-02 -6.97658518E-02 -8.07336995E-17
  6.12477736E-01 -3.57399726E-01 -2.61123656E-01 -3.02174749E-16  6.45898940E-01
  1.00000000E+00
Core Hamiltonian Matrix                    R   N=          91
 -4.96424171E+00 -3.55840472E+00 -4.64838969E+00 -8.51523571E-01 -2.17188542E+00
 -3.28869397E+01 -1.81778358E+00 -3.32875725E+00 -7.70731754E+00 -1.01844837E+01
 -1.52583858E+00 -8.49597807E-01  4.08011686E-08  2.65092348E-07 -8.78536517E+00
  1.13140136E+00  6.79538137E-01  2.37155115E-02  1.55391591E-01 -1.10219211E-06
 -8.74471806E+00  7.56238898E-18  4.33107961E-18  0.00000000E+00  0.00000000E+00
  0.00000000E+00  0.00000000E+00 -8.69817954E+00 -2.68593869E+00 -4.40083532E+00
 -6.42879385E+00 -8.07684896E+00  2.05998517E-07  1.48288122E-01  0.00000000E+00
 -8.32522241E+00 -2.59684714E+00 -1.77373439E+00  5.77284355E-09  1.27404981E-07
 -4.26867868E+00 -9.54183955E-07  0.00000000E+00 -7.86395377E-07 -5.41602657E+00
  1.92255629E+00  1.42809296E+00  3.35544158E-03  9.39405823E-02 -9.54183955E-07
 -4.23128413E+00  0.00000000E+00  2.43600928E-01 -1.65781848E-06 -5.29772226E+00
  2.77133878E-17  1.29238303E-17  0.00000000E+00  0.00000000E+00  0.00000000E+00
  0.00000000E+00 -4.18846959E+00  0.00000000E+00  0.00000000E+00  0.00000000E+00
 -5.16227083E+00 -2.63026893E-01 -1.23869242E+00 -8.51556003E-01 -1.81783279E+00
  1.52585029E+00  1.13145225E+00 -9.14313468E-17 -2.68598487E+00  2.59683345E+00
  1.92261811E+00 -3.35044514E-16 -4.96427596E+00 -1.23868626E+00 -2.65801107E+00
 -2.17190503E+00 -3.32878466E+00  8.49587553E-01  6.79554391E-01 -5.23606728E-17
 -4.40086537E+00  1.77370722E+00  1.42812383E+00 -1.56242375E-16 -3.55842520E+00
 -4.64840701E+00
SCF Energy                                 R     -7.558546928644842E+01
EOMEE transition A' Excitation Energies    R   N=           2
  4.15786212E-01  5.03626983E-01
Number of Active Occ                       I               10
Number of Active Vir                       I               16
Alpha Amplitudes                           R   N=           4
 -6.85202162E-01 -6.85202162E-01 -6.83856129E-01 -6.83856129E-01
Alpha J Indexes                            I   N=           3
           0           2           4
Alpha I Indexes                            I   N=           4
          48         136          49         137
EOMEE transition A" Excitation Energies    R   N=           2
  3.22959292E-01  4.06008292E-01
Number of Active Occ                       I               10
Number of Active Vir                       I               16
Alpha Amplitudes                           R   N=           4
 -6.90181788E-01 -6.90181788E-01  6.88713646E-01  6.88713646E-01
Alpha J Indexes                            I   N=           3
           0           2           4
Alpha I Indexes                            I   N=           4
          64         152          65         153
Number of independent functions            I               13
Alpha MO coefficients                      R   N=         169
  2.46820952E-03  7.05607673E-03  9.83223294E-01  9.59456631E-02  1.43674975E-08
 -3.45876868E-03 -4.23250814E-16 -3.81792791E-02  2.88628135E-09  6.54293420E-03
  1.66422220E-16  2.46819578E-03  7.05624805E-03  1.18512257E-01  1.86261150E-02
 -2.29333350E-01  2.17665508E-01 -7.99614800E-07 -8.24299484E-02 -1.64948564E-16
  7.05503594E-01  1.00246298E-07 -9.09562966E-02 -6.92627369E-16  1.18515119E-01
  1.86256010E-02  2.35841818E-01  1.77318040E-01 -1.09317132E-06  6.65573588E-07
  3.98487433E-01  6.16171105E-06  1.43647243E-15  5.64919457E-06  3.66227631E-01
  4.97578564E-06  2.37582008E-15 -2.35844015E-01 -1.77316524E-01 -1.27247983E-01
 -1.01524361E-01 -8.63547907E-02  8.00679916E-02 -5.43789942E-06  4.46138253E-01
  1.70914752E-15  3.96620787E-01 -6.55509989E-06  5.15761860E-01  2.26391964E-15
 -1.27246199E-01 -1.01520525E-01 -2.03246877E-16 -1.78354747E-16 -4.13523521E-16
  3.89239305E-16 -1.51373180E-15 -2.18396175E-15  5.20499162E-01 -1.43344529E-15
 -6.73573175E-16 -1.55404146E-15  6.32847822E-01  8.58172155E-16  2.14455305E-15
  4.84857580E-02  8.70556328E-01  1.11018815E-01 -3.53781086E-02 -6.59160125E-06
  2.02543773E-01  1.51365354E-16 -1.06355312E+00 -1.41325601E-05  4.52421346E-01
  1.53946723E-16  4.84834728E-02  8.70535718E-01 -2.97293023E-02 -1.18254622E+00
  1.59045799E-06 -2.68552735E-07  3.00169017E-01  4.25305840E-06 -1.38635384E-16
 -2.00336360E-05  7.80365305E-01  1.14966745E-05 -2.56472246E-16  2.97276946E-02
  1.18257445E+00  9.74227837E-01 -6.55664593E-01  2.32200836E-06 -4.77928278E-06
 -1.93766927E-01  9.58797028E-06 -1.01871733E-15  4.67905765E-06 -4.86119848E-01
  1.68920341E-06  5.38444438E-16 -9.74148296E-01  6.55614621E-01  9.87624493E-01
 -4.80403815E-01  6.90835895E-02 -9.15541845E-02  4.89627805E-06  2.52332209E-01
  1.93920208E-15 -1.39256619E-01  2.99529664E-05  3.15743258E-01 -1.09839211E-15
  9.87712105E-01 -4.80446034E-01  3.51347090E-16  8.07135239E-16 -9.95005420E-17
  6.70288005E-16 -2.07700796E-15 -6.78200972E-15  1.02967358E+00 -2.22663415E-15
  1.98127860E-15  6.95769824E-15 -9.64702384E-01 -6.51851238E-16  2.28822516E-15
 -2.32999334E-01 -1.01849300E-01 -4.20504679E-02  1.19511823E-01 -1.28370858E-06
  1.01604224E+00  6.29393146E-15  1.80409040E-01 -1.49513683E-06 -1.13674479E+00
 -6.48225584E-15 -2.32998051E-01 -1.01862912E-01  1.50203948E-01  5.13399230E-01
  2.50273892E-07 -1.85848736E-06  1.06763460E+00  2.36318383E-06  2.64028825E-15
  4.24955682E-06 -1.42094105E+00 -4.54817312E-06 -2.81222583E-15 -1.50194374E-01
 -5.13405217E-01  2.70381586E-01  3.69827906E-01 -8.54008607E-02  1.64401787E+00
  1.47700667E-06 -1.49418637E-01 -6.96981305E-16 -2.00088151E+00  1.20712435E-07
  4.69047227E-01  7.93792278E-16  2.70381788E-01  3.69838709E-01
Alpha Orbital Energies                     R   N=          13
 -2.04238965E+01 -1.32882270E+00 -6.94346986E-01 -5.31994980E-01 -4.77987150E-01
  2.66181537E-01  3.65658667E-01  1.21532954E+00  1.29654582E+00  1.78417216E+00
  1.85891260E+00  2.02326343E+00  3.11205466E+00
Total SCF Density                          R   N=          91
  1.71729319E-01  1.13925236E-01  8.42912075E-02 -2.75275936E-02  2.28660616E-02
  2.05355796E+00  3.16890223E-02 -6.79494192E-03  7.50075923E-02  1.25989453E-01
  1.87961196E-01  1.41319096E-01  4.62956861E-07 -6.85698073E-07  3.17584469E-01
 -1.33092472E-01 -9.37051272E-02 -4.60459623E-02  3.48947669E-02  1.90343976E-07
  4.11692000E-01 -1.01764631E-17 -3.53999424E-17 -1.48231029E-15  5.25870009E-16
 -4.30978178E-16 -7.18329393E-16  5.41838756E-01  6.60974522E-02 -5.47885505E-02
 -4.67168729E-01  3.63314583E-01 -9.40661112E-07  2.37850267E-01 -3.36855836E-16
  1.31300205E+00  1.72745273E-01  1.29878866E-01  2.91125549E-07 -5.18010315E-07
  2.91874217E-01 -1.35233051E-06  3.50940802E-16 -9.20767610E-07  2.68245355E-01
 -1.52783539E-01 -1.08019012E-01 -3.44920599E-02  4.42514680E-02 -1.49809813E-06
  4.75151975E-01  1.69753558E-16  2.80284153E-01 -3.13539895E-06  5.48652309E-01
  1.23880217E-16  1.33669366E-16 -2.69455211E-16  5.85609457E-16 -2.24783626E-17
 -6.31124053E-16  6.58793522E-01 -1.00845340E-15  8.87613466E-16  4.96542359E-16
  8.00992732E-01 -5.07569455E-02 -5.33518348E-02 -2.75282101E-02  3.16899233E-02
 -1.87960558E-01 -1.33097164E-01 -2.60363256E-16  6.60975772E-02 -1.72743497E-01
 -1.52786914E-01 -7.73963577E-16  1.71731840E-01 -5.33511821E-02 -4.14758001E-02
  2.28667471E-02 -6.79499061E-03 -1.41315739E-01 -9.37059913E-02  1.36391077E-15
 -5.47902528E-02 -1.29875086E-01 -1.08018489E-01  1.38868594E-15  1.13923947E-01
  8.42885410E-02
Pure Switching                             I                1
Dipole_Data                                R   N=           3
  2.35178059E-05 -2.38452329E+00 -3.24097663E-15
Quadrupole_Data                            R   N=           6
 -3.99509808E+00  7.88875201E-06 -5.87396645E+00  7.00976206E-17  4.49057918E-16
 -6.80341117E+00
Octapole_Data                              R   N=          10
  3.41726851E-05 -1.18320151E+00 -6.85464168E-06 -1.20904308E+00 -1.32016964E-15
 -6.16848204E-16 -8.31659377E-16 -1.96866495E-06 -3.15904419E-01 -1.60862533E-15
Hexadecapole_Data                          R   N=          15
 -5.26069732E+00 -6.30910782E-06 -1.47610153E+00  1.56220623E-05 -5.18607838E+00
 -3.24372685E-16  1.89934979E-16 -1.19990286E-16 -2.55248951E-16 -1.81557588E+00
  2.92124866E-06 -1.59802657E+00 -9.70564273E-16 -3.57668958E-16 -4.16364014E+00
