Jobname.Temp
SP        U                             STO-3G
Number of atoms                            I                2
Charge                                     I                1
Multiplicity                               I                2
Number of electrons                        I                5
Number of alpha electrons                  I                3
Number of beta electrons                   I                2
Atomic numbers                             I   N=           2
           5           1
Current cartesian coordinates              R   N=           6
  0.00000000E+00  0.00000000E+00 -3.14954354E-01  0.00000000E+00  0.00000000E+00
  1.57477177E+00
Nuclear charges                            R   N=           2
  5.00000000E+00  1.00000000E+00
Number of basis functions                  I                6
Number of contracted shells                I                3
Number of primitive shells                 I                9
Highest angular momentum                   I                1
Largest degree of contraction              I                3
Shell types                                I   N=           3
           0          -1           0
Number of primitives per shell             I   N=           3
           3           3           3
Shell to atom map                          I   N=           3
           1           1           2
Primitive exponents                        R   N=           9
  4.87911130E+01  8.88736220E+00  2.40526700E+00  2.23695610E+00  5.19820500E-01
  1.69061800E-01  3.42525091E+00  6.23913730E-01  1.68855400E-01
Contraction coefficients                   R   N=           9
  1.54328971E-01  5.35328142E-01  4.44634542E-01 -9.99672280E-02  3.99512822E-01
  7.00115456E-01  1.54328971E-01  5.35328142E-01  4.44634542E-01
P(S=P) Contraction coefficients            R   N=           9
  0.00000000E+00  0.00000000E+00  0.00000000E+00  1.55916266E-01  6.07683705E-01
  3.91957380E-01  0.00000000E+00  0.00000000E+00  0.00000000E+00
Coordinates of each shell                  R   N=           9
  0.00000000E+00  0.00000000E+00 -3.14954354E-01  0.00000000E+00  0.00000000E+00
 -3.14954354E-01  0.00000000E+00  0.00000000E+00  1.57477177E+00
Alpha GMO coefficients                     R   N=          36
  9.97164199E-01  1.65429997E-02  7.22212140E-08 -6.44819037E-08 -2.41241229E-03
 -1.71648595E-02 -2.13601737E-01  6.30346641E-01  1.57295971E-07  1.12630390E-06
  1.75894187E-01  4.51356615E-01  2.09220236E-03 -1.59622861E-02  9.82107182E-01
  1.87765271E-01 -1.61395214E-02  2.26029795E-02  2.33688704E-04 -1.78301516E-03
  1.87761719E-01 -9.82213278E-01 -1.79970609E-03  2.52457865E-03  1.44339268E-01
 -1.10168281E+00 -1.45265319E-02 -1.13122022E-03 -1.11501309E+00  1.56055769E+00
  1.61896480E-01 -6.46770024E-01 -1.19470851E-05  1.68986205E-06  7.23596107E-01
  2.63359997E-01
Beta GMO coefficients                      R   N=          36
  9.98130008E-01  1.37790078E-02  3.68026811E-07  8.30299295E-08 -3.54085570E-03
 -1.96346982E-02 -1.81212183E-01  5.38201111E-01 -5.61201373E-06 -1.28430540E-06
  3.27757018E-01  4.48424214E-01  2.99366567E-03 -1.87831940E-02  9.82106940E-01
  1.87765290E-01 -1.07207759E-02  2.19446691E-02  3.34475025E-04 -2.09959044E-03
  1.87761696E-01 -9.82213276E-01 -1.20261123E-03  2.45469301E-03  2.06434186E-01
 -1.29546738E+00 -1.45431406E-02 -1.13016309E-03 -7.40872071E-01  1.51399241E+00
  1.23633948E-01 -2.47874469E-01 -1.68590566E-05 -4.78833895E-06  1.06846095E+00
 -4.63792059E-01
MO to geminal map                          I   N=           6
           0           1           1           1           1           2
Energies of Geminals                       R   N=           3
 -1.88766998E+01 -2.73170567E+00 -8.32863675E-01
Geminal Coefficients                       R   N=           6
  1.00000000E+00  9.95117782E-01 -5.70243071E-02 -5.70242821E-02 -5.68951669E-02
  1.00000000E+00
Dipole_Data                                R   N=           3
 -9.73892181E-06  4.36566717E-06 -6.23397606E-01
Quadrupole_Data                            R   N=           6
 -3.69147356E+00 -9.95001331E-10 -3.69147356E+00  2.59004779E-05 -2.92080123E-06
 -4.57156992E+00
Octapole_Data                              R   N=          10
 -7.88425680E-06  1.17017320E-06 -2.62808560E-06  3.51051959E-06 -2.97374130E-01
  1.65833555E-10 -2.97374130E-01 -8.39670508E-06  1.80114574E-06  4.33100608E-01
Hexadecapole_Data                          R   N=          15
 -3.30326721E+00 -7.48384928E-10 -1.10108907E+00 -7.48384928E-10 -3.30326721E+00
  1.97317933E-05 -7.49379174E-07  6.57726443E-06 -2.24813752E-06 -2.11311820E+00
 -2.77100568E-10 -2.11311820E+00  2.20148067E-05 -2.46944363E-06 -8.83849971E+00
