Jobname.Temp
SP        R                             6-31G(d)            
Number of atoms                            I                6
Charge                                     I                0
Multiplicity                               I                1
Number of electrons                        I               16
Number of alpha electrons                  I                8
Number of beta electrons                   I                8
Atomic numbers                             I   N=           6
           6           6           1           1           1           1
Current cartesian coordinates              R   N=          18
  1.25785405E+00  9.43239461E-33 -1.54042694E-16 -1.25785405E+00 -9.43239461E-33
  1.54042694E-16  2.28951640E+00  1.77229325E+00 -1.71863230E-16  2.28951640E+00
 -1.77229325E+00 -3.88906555E-16 -2.28951640E+00  1.77229325E+00  3.88906555E-16
 -2.28951640E+00 -1.77229325E+00  1.71863230E-16
Nuclear charges                            R   N=           6
  6.00000000E+00  6.00000000E+00  1.00000000E+00  1.00000000E+00  1.00000000E+00
  1.00000000E+00
Number of basis functions                  I               38
Number of contracted shells                I               16
Number of primitive shells                 I               38
Highest angular momentum                   I                2
Largest degree of contraction              I                6
Shell types                                I   N=          16
           0          -1          -1           2           0          -1
          -1           2           0           0           0           0
           0           0           0           0
Number of primitives per shell             I   N=          16
           6           3           1           1           6           3
           1           1           3           1           3           1
           3           1           3           1
Shell to atom map                          I   N=          16
           1           1           1           1           2           2
           2           2           3           3           4           4
           5           5           6           6
Primitive exponents                        R   N=          38
  3.04752490E+03  4.57369510E+02  1.03948690E+02  2.92101550E+01  9.28666300E+00
  3.16392700E+00  7.86827240E+00  1.88128850E+00  5.44249300E-01  1.68714400E-01
  8.00000000E-01  3.04752490E+03  4.57369510E+02  1.03948690E+02  2.92101550E+01
  9.28666300E+00  3.16392700E+00  7.86827240E+00  1.88128850E+00  5.44249300E-01
  1.68714400E-01  8.00000000E-01  1.87311370E+01  2.82539370E+00  6.40121700E-01
  1.61277800E-01  1.87311370E+01  2.82539370E+00  6.40121700E-01  1.61277800E-01
  1.87311370E+01  2.82539370E+00  6.40121700E-01  1.61277800E-01  1.87311370E+01
  2.82539370E+00  6.40121700E-01  1.61277800E-01
Contraction coefficients                   R   N=          38
  1.83470016E-03  1.40373012E-02  6.88426061E-02  2.32184421E-01  4.67941342E-01
  3.62312032E-01 -1.19332409E-01 -1.60854212E-01  1.14345648E+00  1.00000000E+00
  1.00000000E+00  1.83470016E-03  1.40373012E-02  6.88426061E-02  2.32184421E-01
  4.67941342E-01  3.62312032E-01 -1.19332409E-01 -1.60854212E-01  1.14345648E+00
  1.00000000E+00  1.00000000E+00  3.34945995E-02  2.34726947E-01  8.13757318E-01
  1.00000000E+00  3.34945995E-02  2.34726947E-01  8.13757318E-01  1.00000000E+00
  3.34945995E-02  2.34726947E-01  8.13757318E-01  1.00000000E+00  3.34945995E-02
  2.34726947E-01  8.13757318E-01  1.00000000E+00
P(S=P) Contraction coefficients            R   N=          38
  0.00000000E+00  0.00000000E+00  0.00000000E+00  0.00000000E+00  0.00000000E+00
  0.00000000E+00  6.89990956E-02  3.16423980E-01  7.44308252E-01  1.00000000E+00
  0.00000000E+00  0.00000000E+00  0.00000000E+00  0.00000000E+00  0.00000000E+00
  0.00000000E+00  0.00000000E+00  6.89990956E-02  3.16423980E-01  7.44308252E-01
  1.00000000E+00  0.00000000E+00  0.00000000E+00  0.00000000E+00  0.00000000E+00
  0.00000000E+00  0.00000000E+00  0.00000000E+00  0.00000000E+00  0.00000000E+00
  0.00000000E+00  0.00000000E+00  0.00000000E+00  0.00000000E+00  0.00000000E+00
  0.00000000E+00  0.00000000E+00  0.00000000E+00
Coordinates of each shell                  R   N=          48
  1.25785405E+00  9.43239461E-33 -1.54042694E-16  1.25785405E+00  9.43239461E-33
 -1.54042694E-16  1.25785405E+00  9.43239461E-33 -1.54042694E-16  1.25785405E+00
  9.43239461E-33 -1.54042694E-16 -1.25785405E+00 -9.43239461E-33  1.54042694E-16
 -1.25785405E+00 -9.43239461E-33  1.54042694E-16 -1.25785405E+00 -9.43239461E-33
  1.54042694E-16 -1.25785405E+00 -9.43239461E-33  1.54042694E-16  2.28951640E+00
  1.77229325E+00 -1.71863230E-16  2.28951640E+00  1.77229325E+00 -1.71863230E-16
  2.28951640E+00 -1.77229325E+00 -3.88906555E-16  2.28951640E+00 -1.77229325E+00
 -3.88906555E-16 -2.28951640E+00  1.77229325E+00  3.88906555E-16 -2.28951640E+00
  1.77229325E+00  3.88906555E-16 -2.28951640E+00 -1.77229325E+00  1.71863230E-16
 -2.28951640E+00 -1.77229325E+00  1.71863230E-16
Overlap Matrix                             R   N=         741
  1.00000000E+00  2.19058872E-01  1.00000000E+00  0.00000000E+00  0.00000000E+00
  1.00000000E+00  0.00000000E+00  0.00000000E+00  0.00000000E+00  1.00000000E+00
  0.00000000E+00  0.00000000E+00  0.00000000E+00  0.00000000E+00  1.00000000E+00
  1.84261053E-01  8.12273068E-01  0.00000000E+00  0.00000000E+00  0.00000000E+00
  1.00000000E+00  0.00000000E+00  0.00000000E+00  5.69754058E-01  0.00000000E+00
  0.00000000E+00  0.00000000E+00  1.00000000E+00  0.00000000E+00  0.00000000E+00
  0.00000000E+00  5.69754058E-01  0.00000000E+00  0.00000000E+00  0.00000000E+00
  1.00000000E+00  0.00000000E+00  0.00000000E+00  0.00000000E+00  0.00000000E+00
  5.69754058E-01  0.00000000E+00  0.00000000E+00  0.00000000E+00  1.00000000E+00
  7.91027073E-02  7.10235064E-01  0.00000000E+00  0.00000000E+00  0.00000000E+00
  6.29936196E-01  0.00000000E+00  0.00000000E+00  0.00000000E+00  1.00000000E+00
  7.91027073E-02  7.10235064E-01  0.00000000E+00  0.00000000E+00  0.00000000E+00
  6.29936196E-01  0.00000000E+00  0.00000000E+00  0.00000000E+00  3.33333333E-01
  1.00000000E+00  7.91027073E-02  7.10235064E-01  0.00000000E+00  0.00000000E+00
  0.00000000E+00  6.29936196E-01  0.00000000E+00  0.00000000E+00  0.00000000E+00
  3.33333333E-01  3.33333333E-01  1.00000000E+00  0.00000000E+00  0.00000000E+00
  0.00000000E+00  0.00000000E+00  0.00000000E+00  0.00000000E+00  0.00000000E+00
  0.00000000E+00  0.00000000E+00  0.00000000E+00  0.00000000E+00  0.00000000E+00
  1.00000000E+00  0.00000000E+00  0.00000000E+00  0.00000000E+00  0.00000000E+00
  0.00000000E+00  0.00000000E+00  0.00000000E+00  0.00000000E+00  0.00000000E+00
  0.00000000E+00  0.00000000E+00  0.00000000E+00  0.00000000E+00  1.00000000E+00
  0.00000000E+00  0.00000000E+00  0.00000000E+00  0.00000000E+00  0.00000000E+00
  0.00000000E+00  0.00000000E+00  0.00000000E+00  0.00000000E+00  0.00000000E+00
  0.00000000E+00  0.00000000E+00  0.00000000E+00  0.00000000E+00  1.00000000E+00
  5.98012414E-06  2.08156617E-02 -4.51346140E-02 -3.38455395E-34  5.52739606E-18
  6.58048975E-02 -1.31120374E-01 -9.83245319E-34  1.60576146E-17  5.65829556E-02
  1.23800423E-03  1.23800423E-03  7.18836872E-34 -1.17394970E-17 -8.80321274E-50
  1.00000000E+00  2.08156617E-02  2.10536415E-01 -2.89855740E-01 -2.17356991E-33
  3.54970905E-17  3.65588779E-01 -5.66034635E-01 -4.24457991E-33  6.93192504E-17
  3.43102883E-01  9.69632016E-02  9.69632016E-02  3.19693620E-33 -5.22099303E-17
 -3.91511769E-49  2.19058872E-01  1.00000000E+00  4.51346140E-02  2.89855740E-01
 -3.38553132E-01 -3.44346463E-33  5.62360452E-17  2.55367067E-01 -1.64994690E-01
 -3.09045338E-33  5.04709339E-17  4.19919856E-01  1.47177881E-01  1.47177881E-01
  4.97021903E-33 -8.11698365E-17 -7.83526971E-49  0.00000000E+00  0.00000000E+00
  1.00000000E+00  3.38455395E-34  2.17356991E-33 -3.44346463E-33  1.20649025E-01
  4.21702794E-49  1.91494629E-33 -3.09045338E-33  2.47131761E-01  3.78471384E-49
  4.79753468E-33 -5.44982789E-34  1.10365733E-33 -1.90399055E-01 -7.83526971E-49
  2.33171593E-17  0.00000000E+00  0.00000000E+00  0.00000000E+00  1.00000000E+00
 -5.52739606E-18 -3.54970905E-17  5.62360452E-17  4.21702794E-49  1.20649025E-01
 -3.12734462E-17  5.04709339E-17  3.78471384E-49  2.47131761E-01 -7.83496872E-17
 -1.80240920E-17  8.90024436E-18 -7.83526971E-49 -1.90399055E-01 -1.42776423E-33
  0.00000000E+00  0.00000000E+00  0.00000000E+00  0.00000000E+00  1.00000000E+00
  6.58048975E-02  3.65588779E-01 -2.55367067E-01 -1.91494629E-33  3.12734462E-17
  5.86326326E-01 -6.05864798E-01 -4.54325829E-33  7.41970385E-17  3.57824347E-01
  2.60818578E-01  2.60818578E-01  1.25994011E-33 -2.05763834E-17 -1.54298162E-49
  1.84261053E-01  8.12273068E-01  0.00000000E+00  0.00000000E+00  0.00000000E+00
  1.00000000E+00  1.31120374E-01  5.66034635E-01 -1.64994690E-01 -3.09045338E-33
  5.04709339E-17  6.05864798E-01 -3.97280352E-02 -4.69465576E-33  7.66695469E-17
  4.22948663E-01  4.45142515E-01  4.45142515E-01  9.31048008E-34 -1.52051679E-17
 -2.63342712E-49  0.00000000E+00  0.00000000E+00  5.69754058E-01  0.00000000E+00
  0.00000000E+00  0.00000000E+00  1.00000000E+00  9.83245319E-34  4.24457991E-33
 -3.09045338E-33  2.47131761E-01  3.78471384E-49  4.54325829E-33 -4.69465576E-33
  5.86326326E-01  5.74929515E-49  4.57954307E-33  1.93009811E-33  3.33803420E-33
 -1.62600496E-01 -2.63342712E-49  1.99128177E-17  0.00000000E+00  0.00000000E+00
  0.00000000E+00  5.69754058E-01  0.00000000E+00  0.00000000E+00  0.00000000E+00
  1.00000000E+00 -1.60576146E-17 -6.93192504E-17  5.04709339E-17  3.78471384E-49
  2.47131761E-01 -7.41970385E-17  7.66695469E-17  5.74929515E-49  5.86326326E-01
 -7.47896140E-17 -5.45142356E-17 -3.15208942E-17 -2.63342712E-49 -1.62600496E-01
 -1.21930843E-33  0.00000000E+00  0.00000000E+00  0.00000000E+00  0.00000000E+00
  5.69754058E-01  0.00000000E+00  0.00000000E+00  0.00000000E+00  1.00000000E+00
  5.65829556E-02  3.43102883E-01 -4.19919856E-01 -4.79753468E-33  7.83496872E-17
  3.57824347E-01 -4.22948663E-01 -4.57954307E-33  7.47896140E-17  4.90704723E-01
  1.60747968E-01  1.60747968E-01  7.08383797E-33 -1.15687853E-16 -1.29455100E-48
  7.91027073E-02  7.10235064E-01  0.00000000E+00  0.00000000E+00  0.00000000E+00
  6.29936196E-01  0.00000000E+00  0.00000000E+00  0.00000000E+00  1.00000000E+00
  1.23800423E-03  9.69632016E-02 -1.47177881E-01  5.44982789E-34  1.80240920E-17
  2.60818578E-01 -4.45142515E-01 -1.93009811E-33  5.45142356E-17  1.60747968E-01
  7.95384350E-02  2.65128117E-02 -1.74348658E-33 -2.84732966E-17  2.13515526E-49
  7.91027073E-02  7.10235064E-01  0.00000000E+00  0.00000000E+00  0.00000000E+00
  6.29936196E-01  0.00000000E+00  0.00000000E+00  0.00000000E+00  3.33333333E-01
  1.00000000E+00  1.23800423E-03  9.69632016E-02 -1.47177881E-01 -1.10365733E-33
 -8.90024436E-18  2.60818578E-01 -4.45142515E-01 -3.33803420E-33  3.15208942E-17
  1.60747968E-01  2.65128117E-02  7.95384350E-02  1.74348658E-33  2.84732966E-17
  2.13515526E-49  7.91027073E-02  7.10235064E-01  0.00000000E+00  0.00000000E+00
  0.00000000E+00  6.29936196E-01  0.00000000E+00  0.00000000E+00  0.00000000E+00
  3.33333333E-01  3.33333333E-01  1.00000000E+00  7.18836872E-34  3.19693620E-33
 -4.97021903E-33  1.90399055E-01  7.83526971E-49  1.25994011E-33 -9.31048008E-34
  1.62600496E-01  2.63342712E-49  7.08383797E-33 -1.74348658E-33  1.74348658E-33
 -3.23167034E-01 -1.50258863E-48  4.93171964E-17  0.00000000E+00  0.00000000E+00
  0.00000000E+00  0.00000000E+00  0.00000000E+00  0.00000000E+00  0.00000000E+00
  0.00000000E+00  0.00000000E+00  0.00000000E+00  0.00000000E+00  0.00000000E+00
  1.00000000E+00 -1.17394970E-17 -5.22099303E-17  8.11698365E-17  7.83526971E-49
  1.90399055E-01 -2.05763834E-17  1.52051679E-17  2.63342712E-49  1.62600496E-01
 -1.15687853E-16 -2.84732966E-17  2.84732966E-17 -1.50258863E-48 -3.23167034E-01
 -3.01980733E-33  0.00000000E+00  0.00000000E+00  0.00000000E+00  0.00000000E+00
  0.00000000E+00  0.00000000E+00  0.00000000E+00  0.00000000E+00  0.00000000E+00
  0.00000000E+00  0.00000000E+00  0.00000000E+00  0.00000000E+00  1.00000000E+00
 -8.80321274E-50 -3.91511769E-49  7.83526971E-49 -2.33171593E-17  1.42776423E-33
 -1.54298162E-49  2.63342712E-49 -1.99128177E-17  1.21930843E-33 -1.29455100E-48
  2.13515526E-49  2.13515526E-49  4.93171964E-17 -3.01980733E-33  7.95384350E-02
  0.00000000E+00  0.00000000E+00  0.00000000E+00  0.00000000E+00  0.00000000E+00
  0.00000000E+00  0.00000000E+00  0.00000000E+00  0.00000000E+00  0.00000000E+00
  0.00000000E+00  0.00000000E+00  0.00000000E+00  0.00000000E+00  1.00000000E+00
  3.34397609E-02  2.76732893E-01  1.87350566E-01  3.21849631E-01 -3.23622106E-18
  3.78966766E-01  2.59268138E-01  4.45396865E-01 -4.47849734E-18  2.05420307E-01
  3.73607590E-01  1.19222673E-01  2.56480280E-01 -2.57892756E-18 -4.43034095E-18
  5.65127369E-05  9.14261352E-03  1.73683126E-02  8.67734105E-03 -1.59567095E-18
  7.92328797E-02  1.85516827E-01  9.26856177E-02 -1.70439016E-17  1.58791443E-02
  5.41247111E-03  1.93087484E-03  1.20700758E-02 -2.21955886E-18 -1.10890848E-18
  1.00000000E+00  9.27414047E-02  4.78320318E-01  1.33740447E-01  2.29752780E-01
 -2.31018064E-18  7.06707783E-01  2.92721377E-01  5.02866200E-01 -5.05635561E-18
  3.73394389E-01  4.13072455E-01  3.53058990E-01  6.05077951E-02 -6.08410207E-19
 -1.04518820E-18  1.54261054E-02  1.16780136E-01  1.06556671E-01  5.32365230E-02
 -9.78963171E-18  2.73352670E-01  3.89320122E-01  1.94507294E-01 -3.57678274E-17
  1.26453856E-01  8.80125996E-02  7.52256392E-02  4.43301199E-02 -8.15183867E-18
 -4.07272059E-18  6.58292049E-01  1.00000000E+00  3.34397609E-02  2.76732893E-01
  1.87350566E-01 -3.21849631E-01 -4.26514331E-17  3.78966766E-01  2.59268138E-01
 -4.45396865E-01 -5.90238818E-17  2.05420307E-01  3.73607590E-01  1.19222673E-01
 -2.56480280E-01 -3.39887030E-17  5.83892099E-17  5.65127369E-05  9.14261352E-03
  1.73683126E-02 -8.67734105E-03 -2.65833874E-18  7.92328797E-02  1.85516827E-01
 -9.26856177E-02 -2.83946161E-17  1.58791443E-02  5.41247111E-03  1.93087484E-03
 -1.20700758E-02 -3.69771682E-18  1.84740744E-18  1.22491715E-02  1.26650860E-01
  1.00000000E+00  9.27414047E-02  4.78320318E-01  1.33740447E-01 -2.29752780E-01
 -3.04467813E-17  7.06707783E-01  2.92721377E-01 -5.02866200E-01 -6.66397039E-17
  3.73394389E-01  4.13072455E-01  3.53058990E-01 -6.05077951E-02 -8.01847796E-18
  1.37749473E-17  1.54261054E-02  1.16780136E-01  1.06556671E-01 -5.32365230E-02
 -1.63092255E-17  2.73352670E-01  3.89320122E-01 -1.94507294E-01 -5.95881009E-17
  1.26453856E-01  8.80125996E-02  7.52256392E-02 -4.43301199E-02 -1.35807126E-17
  6.78502730E-18  1.26650860E-01  3.63071796E-01  6.58292049E-01  1.00000000E+00
  5.65127369E-05  9.14261352E-03 -1.73683126E-02  8.67734105E-03  2.65833874E-18
  7.92328797E-02 -1.85516827E-01  9.26856177E-02  2.83946161E-17  1.58791443E-02
  5.41247111E-03  1.93087484E-03 -1.20700758E-02 -3.69771682E-18  1.84740744E-18
  3.34397609E-02  2.76732893E-01 -1.87350566E-01  3.21849631E-01  4.26514331E-17
  3.78966766E-01 -2.59268138E-01  4.45396865E-01  5.90238818E-17  2.05420307E-01
  3.73607590E-01  1.19222673E-01 -2.56480280E-01 -3.39887030E-17  5.83892099E-17
  8.10930600E-04  4.22302821E-02  1.44633143E-05  8.21491242E-03  1.00000000E+00
  1.54261054E-02  1.16780136E-01 -1.06556671E-01  5.32365230E-02  1.63092255E-17
  2.73352670E-01 -3.89320122E-01  1.94507294E-01  5.95881009E-17  1.26453856E-01
  8.80125996E-02  7.52256392E-02 -4.43301199E-02 -1.35807126E-17  6.78502730E-18
  9.27414047E-02  4.78320318E-01 -1.33740447E-01  2.29752780E-01  3.04467813E-17
  7.06707783E-01 -2.92721377E-01  5.02866200E-01  6.66397039E-17  3.73394389E-01
  4.13072455E-01  3.53058990E-01 -6.05077951E-02 -8.01847796E-18  1.37749473E-17
  4.22302821E-02  1.84372066E-01  8.21491242E-03  6.69402972E-02  6.58292049E-01
  1.00000000E+00  5.65127369E-05  9.14261352E-03 -1.73683126E-02 -8.67734105E-03
  1.59567095E-18  7.92328797E-02 -1.85516827E-01 -9.26856177E-02  1.70439016E-17
  1.58791443E-02  5.41247111E-03  1.93087484E-03  1.20700758E-02 -2.21955886E-18
 -1.10890848E-18  3.34397609E-02  2.76732893E-01 -1.87350566E-01 -3.21849631E-01
  3.23622106E-18  3.78966766E-01 -2.59268138E-01 -4.45396865E-01  4.47849734E-18
  2.05420307E-01  3.73607590E-01  1.19222673E-01  2.56480280E-01 -2.57892756E-18
 -4.43034095E-18  1.44633143E-05  8.21491242E-03  8.10930600E-04  4.22302821E-02
  1.22491715E-02  1.26650860E-01  1.00000000E+00  1.54261054E-02  1.16780136E-01
 -1.06556671E-01 -5.32365230E-02  9.78963171E-18  2.73352670E-01 -3.89320122E-01
 -1.94507294E-01  3.57678274E-17  1.26453856E-01  8.80125996E-02  7.52256392E-02
  4.43301199E-02 -8.15183867E-18 -4.07272059E-18  9.27414047E-02  4.78320318E-01
 -1.33740447E-01 -2.29752780E-01  2.31018064E-18  7.06707783E-01 -2.92721377E-01
 -5.02866200E-01  5.05635561E-18  3.73394389E-01  4.13072455E-01  3.53058990E-01
  6.05077951E-02 -6.08410207E-19 -1.04518820E-18  8.21491242E-03  6.69402972E-02
  4.22302821E-02  1.84372066E-01  1.26650860E-01  3.63071796E-01  6.58292049E-01
  1.00000000E+00
Core Hamiltonian Matrix                    R   N=         741
 -2.18098261E+01 -4.50702294E+00 -8.65005624E+00  7.80057215E-02  5.65803893E-01
 -8.16851580E+00  0.00000000E+00  0.00000000E+00  0.00000000E+00 -7.88398029E+00
  0.00000000E+00  0.00000000E+00  0.00000000E+00  0.00000000E+00 -7.71875876E+00
 -3.87503792E+00 -6.95009793E+00  5.70072184E-01  0.00000000E+00  0.00000000E+00
 -7.36152683E+00  1.31044884E-02  4.12726025E-01 -4.42450996E+00  0.00000000E+00
  0.00000000E+00  8.51255405E-01 -6.20494660E+00  0.00000000E+00  0.00000000E+00
  0.00000000E+00 -4.12185082E+00  0.00000000E+00  0.00000000E+00  0.00000000E+00
 -5.44541955E+00  0.00000000E+00  0.00000000E+00  0.00000000E+00  0.00000000E+00
 -3.98048264E+00  0.00000000E+00  0.00000000E+00  0.00000000E+00 -5.20683663E+00
 -1.66102968E+00 -5.99227746E+00  9.30069197E-01  0.00000000E+00  0.00000000E+00
 -5.22878798E+00  8.06438738E-01  0.00000000E+00  0.00000000E+00 -7.19245876E+00
 -1.65382756E+00 -5.75700459E+00  1.72229550E-01  0.00000000E+00  0.00000000E+00
 -4.94908916E+00  1.21053998E-01  0.00000000E+00  0.00000000E+00 -2.99707252E+00
 -6.63879632E+00 -1.64923332E+00 -5.61558995E+00  2.32250687E-01  0.00000000E+00
  0.00000000E+00 -4.79893353E+00  1.77842487E-01  0.00000000E+00  0.00000000E+00
 -2.92941131E+00 -2.85790060E+00 -6.33233786E+00  0.00000000E+00  0.00000000E+00
  0.00000000E+00  2.98310331E-01  0.00000000E+00  0.00000000E+00  0.00000000E+00
  2.09671675E-01  0.00000000E+00  0.00000000E+00  0.00000000E+00  0.00000000E+00
 -5.79121757E+00  0.00000000E+00  0.00000000E+00  0.00000000E+00  0.00000000E+00
  4.02269990E-01  0.00000000E+00  0.00000000E+00  0.00000000E+00  3.08032223E-01
  0.00000000E+00  0.00000000E+00  0.00000000E+00  0.00000000E+00 -5.58823394E+00
  0.00000000E+00  0.00000000E+00  0.00000000E+00  0.00000000E+00  0.00000000E+00
  0.00000000E+00  0.00000000E+00  0.00000000E+00  0.00000000E+00  0.00000000E+00
  0.00000000E+00  0.00000000E+00  0.00000000E+00  0.00000000E+00 -5.37370179E+00
 -2.30015109E-04 -4.46372509E-01  9.61819106E-01  2.19830923E-34 -3.59011141E-18
 -1.39071368E+00  2.76223079E+00 -4.70328382E-34  7.68104539E-18 -1.20827667E+00
 -2.86847674E-02 -2.86409876E-02 -8.04458199E-34  1.31377994E-17  9.85177159E-50
 -2.18098261E+01 -4.46372509E-01 -2.08106703E+00  2.78966707E+00 -9.25474564E-34
  1.51141466E-17 -3.31667357E+00  4.93260795E+00 -1.82475558E-33  2.98005202E-17
 -3.27828040E+00 -9.28431809E-01 -9.21325178E-01  3.47227000E-33 -5.67064725E-17
 -4.25230434E-49 -4.50702294E+00 -8.65005624E+00 -9.61819106E-01 -2.78966707E+00
  3.13029264E+00 -2.95205177E-33  4.82106641E-17 -2.40800057E+00  1.58951376E+00
 -2.17400944E-33  3.55042685E-17 -3.81438029E+00 -1.36437183E+00 -1.35269353E+00
  8.27313774E-33 -1.35110593E-16 -1.15470948E-48 -7.80057215E-02 -5.65803893E-01
 -8.16851580E+00 -2.19830923E-34  9.25474564E-34 -2.95205177E-33 -1.03152435E+00
  3.61522075E-49  8.39041637E-34 -2.17400944E-33 -1.85822247E+00  2.66239370E-49
  5.11867666E-33 -1.65969257E-33 -3.25111950E-34  1.56250277E+00 -1.15470948E-48
  1.88753315E-17  0.00000000E+00  0.00000000E+00  0.00000000E+00 -7.88398029E+00
  3.59011141E-18 -1.51141466E-17  4.82106641E-17  3.61522075E-49 -1.02189653E+00
 -1.37025898E-17  3.55042685E-17  2.66239370E-49 -1.81863507E+00 -8.35943337E-17
  5.30948108E-18  2.71048366E-17 -1.15470948E-48  1.55127628E+00 -1.15578072E-33
  0.00000000E+00  0.00000000E+00  0.00000000E+00  0.00000000E+00 -7.71875876E+00
 -1.39071368E+00 -3.31667357E+00  2.40800057E+00 -8.39041637E-34  1.37025898E-17
 -4.60776649E+00  4.65909549E+00 -1.50705767E-33  2.46121195E-17 -3.33206983E+00
 -2.13671505E+00 -2.09584969E+00  9.19242678E-34 -1.50123722E-17 -1.12574760E-49
 -3.87503792E+00 -6.95009793E+00 -5.70072184E-01  0.00000000E+00  0.00000000E+00
 -7.36152683E+00 -2.76223079E+00 -4.93260795E+00  1.58951376E+00 -2.17400944E-33
  3.55042685E-17 -4.65909549E+00  5.97462305E-01 -2.34933420E-33  3.83675392E-17
 -3.65587576E+00 -3.52223575E+00 -3.43567030E+00  1.27850625E-33 -2.08795916E-17
 -2.65516207E-49 -1.31044884E-02 -4.12726025E-01 -4.42450996E+00  0.00000000E+00
  0.00000000E+00 -8.51255405E-01 -6.20494660E+00  4.70328382E-34  1.82475558E-33
 -2.17400944E-33 -1.85822247E+00  2.66239370E-49  1.50705767E-33 -2.34933420E-33
 -3.36324735E+00  2.87710461E-49  2.56081102E-33  2.81835964E-34  1.30905539E-33
  1.23273406E+00 -2.65516207E-49  1.45282397E-17  0.00000000E+00  0.00000000E+00
  0.00000000E+00 -4.12185082E+00  0.00000000E+00  0.00000000E+00  0.00000000E+00
 -5.44541955E+00 -7.68104539E-18 -2.98005202E-17  3.55042685E-17  2.66239370E-49
 -1.81863507E+00 -2.46121195E-17  3.83675392E-17  2.87710461E-49 -3.25718224E+00
 -4.18212178E-17 -2.13784968E-17 -4.60273059E-18 -2.65516207E-49  1.23639069E+00
 -8.89598115E-34  0.00000000E+00  0.00000000E+00  0.00000000E+00  0.00000000E+00
 -3.98048264E+00  0.00000000E+00  0.00000000E+00  0.00000000E+00 -5.20683663E+00
 -1.20827667E+00 -3.27828040E+00  3.81438029E+00 -5.11867666E-33  8.35943337E-17
 -3.33206983E+00  3.65587576E+00 -2.56081102E-33  4.18212178E-17 -4.22803267E+00
 -1.54958966E+00 -1.53931989E+00  1.54278246E-32 -2.51955497E-16 -2.56184701E-48
 -1.66102968E+00 -5.99227746E+00 -9.30069197E-01  0.00000000E+00  0.00000000E+00
 -5.22878798E+00 -8.06438738E-01  0.00000000E+00  0.00000000E+00 -7.19245876E+00
 -2.86847674E-02 -9.28431809E-01  1.36437183E+00  1.65969257E-33 -5.30948108E-18
 -2.13671505E+00  3.52223575E+00 -2.81835964E-34  2.13784968E-17 -1.54958966E+00
 -6.76800550E-01 -2.80662310E-01 -5.53520038E-33  7.17866811E-19  6.77866543E-49
 -1.65382756E+00 -5.75700459E+00 -1.72229550E-01  0.00000000E+00  0.00000000E+00
 -4.94908916E+00 -1.21053998E-01  0.00000000E+00  0.00000000E+00 -2.99707252E+00
 -6.63879632E+00 -2.86409876E-02 -9.21325178E-01  1.35269353E+00  3.25111950E-34
 -2.71048366E-17 -2.09584969E+00  3.43567030E+00 -1.30905539E-33  4.60273059E-18
 -1.53931989E+00 -2.80662310E-01 -6.68558563E-01 -4.39566646E-35  9.03966823E-17
  6.77866543E-49 -1.64923332E+00 -5.61558995E+00 -2.32250687E-01  0.00000000E+00
  0.00000000E+00 -4.79893353E+00 -1.77842487E-01  0.00000000E+00  0.00000000E+00
 -2.92941131E+00 -2.85790060E+00 -6.33233786E+00 -8.04458199E-34  3.47227000E-33
 -8.27313774E-33 -1.56250277E+00  1.15470948E-48  9.19242678E-34 -1.27850625E-33
 -1.23273406E+00  2.65516207E-49  1.54278246E-32 -5.53520038E-33 -4.39566646E-35
  2.33164770E+00 -3.86418534E-48  7.76641324E-17  0.00000000E+00  0.00000000E+00
  0.00000000E+00 -2.98310331E-01  0.00000000E+00  0.00000000E+00  0.00000000E+00
 -2.09671675E-01  0.00000000E+00  0.00000000E+00  0.00000000E+00  0.00000000E+00
 -5.79121757E+00  1.31377994E-17 -5.67064725E-17  1.35110593E-16  1.15470948E-48
 -1.55127628E+00 -1.50123722E-17  2.08795916E-17  2.65516207E-49 -1.23639069E+00
 -2.51955497E-16  7.17866811E-19  9.03966823E-17 -3.86418534E-48  2.31583335E+00
 -4.75555656E-33  0.00000000E+00  0.00000000E+00  0.00000000E+00  0.00000000E+00
 -4.02269990E-01  0.00000000E+00  0.00000000E+00  0.00000000E+00 -3.08032223E-01
  0.00000000E+00  0.00000000E+00  0.00000000E+00  0.00000000E+00 -5.58823394E+00
  9.85177159E-50 -4.25230434E-49  1.15470948E-48 -1.88753315E-17  1.15578072E-33
 -1.12574760E-49  2.65516207E-49 -1.45282397E-17  8.89598115E-34 -2.56184701E-48
  6.77866543E-49  6.77866543E-49  7.76641324E-17 -4.75555656E-33 -5.87463938E-01
  0.00000000E+00  0.00000000E+00  0.00000000E+00  0.00000000E+00  0.00000000E+00
  0.00000000E+00  0.00000000E+00  0.00000000E+00  0.00000000E+00  0.00000000E+00
  0.00000000E+00  0.00000000E+00  0.00000000E+00  0.00000000E+00 -5.37370179E+00
 -7.03492316E-01 -2.19215881E+00 -1.28070243E+00 -2.30128799E+00 -2.10694658E-18
 -2.53978614E+00 -1.44513996E+00 -2.58171595E+00 -2.35388392E-18 -1.51916065E+00
 -2.61095094E+00 -1.00626672E+00 -1.53731880E+00 -3.50633955E-18 -6.02354246E-18
 -1.31410115E-03 -9.99804945E-02 -1.83904843E-01 -7.97840964E-02  2.19430458E-18
 -6.02921798E-01 -1.33478479E+00 -6.00855939E-01 -1.65032684E-18 -1.84881875E-01
 -5.42883852E-02 -2.25659265E-02 -1.19048443E-01  3.44385600E-18  1.72057664E-18
 -5.36765363E+00 -1.94927111E+00 -3.94753395E+00 -6.91008395E-01 -1.63671972E+00
 -1.15415596E-18 -4.65318455E+00 -1.09064838E+00 -2.54315382E+00 -1.79549298E-18
 -2.90974421E+00 -3.14274628E+00 -2.66386675E+00 -3.18705993E-01 -4.79438711E-19
 -8.23628001E-19 -3.27111309E-01 -1.07262325E+00 -1.00052537E+00 -4.06811926E-01
 -1.24614936E-18 -2.03229862E+00 -2.76143107E+00 -1.08431139E+00 -7.09825313E-18
 -1.21442298E+00 -7.20365087E-01 -6.22777288E-01 -3.44146746E-01 -3.04042153E-18
 -1.51901772E-18 -3.83171656E+00 -5.21631564E+00 -7.03492316E-01 -2.19215881E+00
 -1.28070243E+00  2.30128799E+00 -2.77682795E-17 -2.53978614E+00 -1.44513996E+00
  2.58171595E+00 -3.10227641E-17 -1.51916065E+00 -2.61095094E+00 -1.00626672E+00
  1.53731880E+00 -4.62114311E-17  7.93866407E-17 -1.31410115E-03 -9.99804945E-02
 -1.83904843E-01  7.97840964E-02  3.65564397E-18 -6.02921798E-01 -1.33478479E+00
  6.00855939E-01 -2.74939378E-18 -1.84881875E-01 -5.42883852E-02 -2.25659265E-02
  1.19048443E-01  5.73735822E-18 -2.86642779E-18 -1.24553345E-01 -9.04162424E-01
 -5.36765363E+00 -1.94927111E+00 -3.94753395E+00 -6.91008395E-01  1.63671972E+00
 -1.52110764E-17 -4.65318455E+00 -1.09064838E+00  2.54315382E+00 -2.36635098E-17
 -2.90974421E+00 -3.14274628E+00 -2.66386675E+00  3.18705993E-01 -6.31871177E-18
  1.08549181E-17 -3.27111309E-01 -1.07262325E+00 -1.00052537E+00  4.06811926E-01
 -2.07604653E-18 -2.03229862E+00 -2.76143107E+00  1.08431139E+00 -1.18254715E-17
 -1.21442298E+00 -7.20365087E-01 -6.22777288E-01  3.44146746E-01 -5.06524880E-18
  2.53063682E-18 -9.04162424E-01 -2.32864199E+00 -3.83171656E+00 -5.21631564E+00
 -1.31410115E-03 -9.99804945E-02  1.83904843E-01 -7.97840964E-02 -3.65564397E-18
 -6.02921798E-01  1.33478479E+00 -6.00855939E-01  2.74939378E-18 -1.84881875E-01
 -5.42883852E-02 -2.25659265E-02  1.19048443E-01  5.73735822E-18 -2.86642779E-18
 -7.03492316E-01 -2.19215881E+00  1.28070243E+00 -2.30128799E+00  2.77682795E-17
 -2.53978614E+00  1.44513996E+00 -2.58171595E+00  3.10227641E-17 -1.51916065E+00
 -2.61095094E+00 -1.00626672E+00  1.53731880E+00 -4.62114311E-17  7.93866407E-17
 -8.30447499E-03 -3.00586331E-01 -2.37407476E-04 -7.40930779E-02 -5.36765363E+00
 -3.27111309E-01 -1.07262325E+00  1.00052537E+00 -4.06811926E-01  2.07604653E-18
 -2.03229862E+00  2.76143107E+00 -1.08431139E+00  1.18254715E-17 -1.21442298E+00
 -7.20365087E-01 -6.22777288E-01  3.44146746E-01 -5.06524880E-18  2.53063682E-18
 -1.94927111E+00 -3.94753395E+00  6.91008395E-01 -1.63671972E+00  1.52110764E-17
 -4.65318455E+00  1.09064838E+00 -2.54315382E+00  2.36635098E-17 -2.90974421E+00
 -3.14274628E+00 -2.66386675E+00  3.18705993E-01 -6.31871177E-18  1.08549181E-17
 -3.00586331E-01 -1.17911588E+00 -7.40930779E-02 -5.42764654E-01 -3.83171656E+00
 -5.21631564E+00 -1.31410115E-03 -9.99804945E-02  1.83904843E-01  7.97840964E-02
 -2.19430458E-18 -6.02921798E-01  1.33478479E+00  6.00855939E-01  1.65032684E-18
 -1.84881875E-01 -5.42883852E-02 -2.25659265E-02 -1.19048443E-01  3.44385600E-18
  1.72057664E-18 -7.03492316E-01 -2.19215881E+00  1.28070243E+00  2.30128799E+00
  2.10694658E-18 -2.53978614E+00  1.44513996E+00  2.58171595E+00  2.35388392E-18
 -1.51916065E+00 -2.61095094E+00 -1.00626672E+00 -1.53731880E+00 -3.50633955E-18
 -6.02354246E-18 -2.37407476E-04 -7.40930779E-02 -8.30447499E-03 -3.00586331E-01
 -1.24553345E-01 -9.04162424E-01 -5.36765363E+00 -3.27111309E-01 -1.07262325E+00
  1.00052537E+00  4.06811926E-01  1.24614936E-18 -2.03229862E+00  2.76143107E+00
  1.08431139E+00  7.09825313E-18 -1.21442298E+00 -7.20365087E-01 -6.22777288E-01
 -3.44146746E-01 -3.04042153E-18 -1.51901772E-18 -1.94927111E+00 -3.94753395E+00
  6.91008395E-01  1.63671972E+00  1.15415596E-18 -4.65318455E+00  1.09064838E+00
  2.54315382E+00  1.79549298E-18 -2.90974421E+00 -3.14274628E+00 -2.66386675E+00
 -3.18705993E-01 -4.79438711E-19 -8.23628001E-19 -7.40930779E-02 -5.42764654E-01
 -3.00586331E-01 -1.17911588E+00 -9.04162424E-01 -2.32864199E+00 -3.83171656E+00
 -5.21631564E+00
SCF Energy                                 R     -7.853613684118697E+01
Number of independent functions            I               38
Alpha MO coefficients                      R   N=        1444
  7.01446462E-01  3.72651301E-02  3.47363596E-04 -1.93806863E-11  1.88487977E-12
 -6.52932626E-03 -6.78209804E-04  9.79685972E-12 -5.94982718E-13 -7.63366474E-03
 -7.67459762E-03 -7.84938997E-03 -3.93293231E-12  2.45944018E-13 -4.93241336E-13
  7.01446527E-01  3.72651336E-02 -3.47363558E-04 -2.10714628E-11  1.90954365E-12
 -6.52932756E-03  6.78209571E-04  1.41334623E-11 -1.13177466E-12 -7.63366541E-03
 -7.67459832E-03 -7.84939068E-03  2.17581288E-12 -7.27156585E-13  4.84869184E-13
 -3.62588558E-04  1.68473908E-03 -3.62588566E-04  1.68473910E-03 -3.62588579E-04