5
image #: 1 Energy = -291.76921
Si 1.02803   -0.13157  -0.77969  
H 0.92392   -1.30193  0.20172   
H 1.29487   0.90061   0.31889   
H -1.71399  0.30088   -0.22623  
H -1.53284  0.23202   0.48531   
5
image #: 2 Energy = -291.77003
Si 0.94250   -0.11731  -0.77525  
H 0.90617   -1.31986  0.21029   
H 1.28418   0.92161   0.33026   
H -1.62665  0.28778   -0.25735  
H -1.48502  0.22329   0.49236   
5
image #: 3 Energy = -291.76873
Si 0.85628   -0.10442  -0.75043  
H 0.88996   -1.32956  0.21057   
H 1.27213   0.93555   0.33259   
H -1.54798  0.27642   -0.29408  
H -1.43076  0.21344   0.50179   
5
image #: 4 Energy = -291.77016
Si 0.72763   -0.08471  -0.71999  
H 0.86280   -1.33322  0.21469   
H 1.24738   0.94693   0.33842   
H -1.43397  0.25731   -0.29769  
H -1.35124  0.20190   0.46541   
5
image #: 5 Energy = -291.76716
Si 0.63922   -0.07165  -0.68213  
H 0.83923   -1.33689  0.21190   
H 1.22579   0.95769   0.33611   
H -1.35929  0.24690   -0.34248  
H -1.28197  0.18931   0.47917   
5
image #: 6 Energy = -291.76220
Si 0.56262   -0.06103  -0.64309  
H 0.81359   -1.33969  0.20691   
H 1.20198   0.96880   0.33151   
H -1.29498  0.23820   -0.38689  
H -1.21803  0.17745   0.49648   
5
image #: 7 Energy = -291.75683
Si 0.49353   -0.05215  -0.59861  
H 0.78680   -1.34314  0.19853   
H 1.17711   0.98133   0.32342   
H -1.24098  0.23128   -0.43243  
H -1.15656  0.16588   0.51610   
5
image #: 8 Energy = -291.75298
Si 0.43035   -0.04496  -0.54777  
H 0.75869   -1.34702  0.18617   
H 1.15114   0.99540   0.31141   
H -1.19630  0.22597   -0.47785  
H -1.09497  0.15428   0.53545   
5
image #: 9 Energy = -291.75169
Si 0.37169   -0.03860  -0.49159  
H 0.72672   -1.34976  0.16962   
H 1.12150   1.01003   0.29539   
H -1.15903  0.22216   -0.52676  
H -1.02752  0.14146   0.55743   
5
image #: 10 Energy = -291.75455
Si 0.33078   -0.03480  -0.43666  
H 0.71487   -1.35794  0.14957   
H 1.11339   1.02335   0.27678   
H -1.15525  0.22519   -0.59257  
H -0.98742  0.13218   0.59936   
5
image #: 11 Energy = -291.76341
Si 0.28627   -0.02887  -0.39345  
H 0.70763   -1.36626  0.13137   
H 1.11106   1.03392   0.26129   
H -1.15828  0.23078   -0.66792  
H -0.94804  0.12204   0.65507   
5
image #: 12 Energy = -291.77365
Si 0.23980   -0.02516  -0.32700  
H 0.76162   -1.37283  0.10936   
H 1.16332   1.02616   0.23825   
H -1.19955  0.24162   -0.74307  
H -0.98350  0.12594   0.69609   
5
image #: 13 Energy = -291.78804
Si 0.19499   -0.02086  -0.26061  
H 0.78060   -1.37564  0.08209   
H 1.18189   1.02605   0.21063   
H -1.20423  0.24628   -0.81504  
H -0.98678  0.12431   0.74268   
5
image #: 14 Energy = -291.80277
Si 0.17616   -0.02165  -0.19696  
H 0.78885   -1.38703  0.04395   
H 1.19348   1.03943   0.17375   
H -1.18700  0.24711   -0.89090  
H -1.01603  0.12606   0.81846   
5
image #: 15 Energy = -291.81716
Si 0.14883   -0.01919  -0.14510  
H 0.77835   -1.39086  0.01242   
H 1.18527   1.05015   0.14311   
H -1.14743  0.24403   -0.96082  
H -1.01571  0.12262   0.89162   
5
image #: 16 Energy = -291.82957
Si 0.12047   -0.01676  -0.10003  
H 0.75892   -1.39111  -0.01482  
H 1.16846   1.06039   0.11665   
H -1.09605  0.23888   -1.02778  
H -1.00252  0.11670   0.96617   
5
image #: 17 Energy = -291.83864
Si 0.09347   -0.01309  -0.06616  
H 0.73563   -1.38829  -0.03503  
H 1.14652   1.06740   0.09662   
H -1.04018  0.23257   -1.08620  
H -0.98018  0.10923   1.03664   
5
image #: 18 Energy = -291.84541
Si 0.06258   -0.00954  -0.03833  
H 0.70815   -1.37954  -0.05003  
H 1.11928   1.07036   0.08129   
H -0.97679  0.22476   -1.13746  
H -0.94735  0.10026   1.10231   
5
image #: 19 Energy = -291.84928
Si 0.03547   -0.00519  -0.01897  
H 0.67915   -1.36471  -0.05951  
H 1.08776   1.06658   0.07068   
H -0.91297  0.21643   -1.17940  
H -0.90938  0.09068   1.16224   
5
image #: 20 Energy = -291.85041
Si 0.00023   -0.00048  -0.00002  
H 0.64475   -1.33696  -0.06487  
H 1.04765   1.05272   0.06299   
H -0.83703  0.20565   -1.21113  
H -0.85560  0.07908   1.21302   
