Jobname.Temp
SP        R                             cc-pVDZ             
Number of atoms                            I                3
Charge                                     I                1
Multiplicity                               I                1
Number of electrons                        I               28
Number of alpha electrons                  I               14
Number of beta electrons                   I               14
Atomic numbers                             I   N=           3
          20           8           1
Current cartesian coordinates              R   N=           9
  0.00000000E+00  0.00000000E+00 -1.27445156E+00  0.00000000E+00  0.00000000E+00
  2.63231778E+00  0.00000000E+00  0.00000000E+00  4.43048894E+00
Nuclear charges                            R   N=           3
  2.00000000E+01  8.00000000E+00  1.00000000E+00
Number of basis functions                  I               46
Number of contracted shells                I               20
Number of primitive shells                 I              114
Highest angular momentum                   I                2
Largest degree of contraction              I               13
Shell types                                I   N=          20
           0           0           0           0           0           1
           1           1           1          -2          -2           0
           0           0           1           1          -2           0
           0           1
Number of primitives per shell             I   N=          20
          13          13          13          13           1          10
          10          10           1           4           1           7
           7           1           3           1           1           3
           1           1
Shell to atom map                          I   N=          20
           1           1           1           1           1           1
           1           1           1           1           1           2
           2           2           2           2           2           3
           3           3
Primitive exponents                        R   N=         114
  1.90000700E+05  2.84814600E+04  6.48270100E+03  1.83589100E+03  5.98724300E+02
  2.15884100E+02  8.40124200E+01  3.42248800E+01  1.00249700E+01  4.05592000E+00
  1.02026100E+00  4.26865000E-01  6.33470000E-02  1.90000700E+05  2.84814600E+04
  6.48270100E+03  1.83589100E+03  5.98724300E+02  2.15884100E+02  8.40124200E+01
  3.42248800E+01  1.00249700E+01  4.05592000E+00  1.02026100E+00  4.26865000E-01
  6.33470000E-02  1.90000700E+05  2.84814600E+04  6.48270100E+03  1.83589100E+03
  5.98724300E+02  2.15884100E+02  8.40124200E+01  3.42248800E+01  1.00249700E+01
  4.05592000E+00  1.02026100E+00  4.26865000E-01  6.33470000E-02  1.90000700E+05
  2.84814600E+04  6.48270100E+03  1.83589100E+03  5.98724300E+02  2.15884100E+02
  8.40124200E+01  3.42248800E+01  1.00249700E+01  4.05592000E+00  1.02026100E+00
  4.26865000E-01  6.33470000E-02  2.63010000E-02  1.07204300E+03  2.53843900E+02
  8.13162600E+01  3.02418300E+01  1.21011000E+01  5.02255400E+00  1.90922000E+00
  7.71304000E-01  3.00570000E-01  7.66490000E-02  1.07204300E+03  2.53843900E+02
  8.13162600E+01  3.02418300E+01  1.21011000E+01  5.02255400E+00  1.90922000E+00
  7.71304000E-01  3.00570000E-01  7.66490000E-02  1.07204300E+03  2.53843900E+02
  8.13162600E+01  3.02418300E+01  1.21011000E+01  5.02255400E+00  1.90922000E+00
  7.71304000E-01  3.00570000E-01  7.66490000E-02  2.77720000E-02  1.03182000E+01
  2.59242000E+00  7.61700000E-01  2.08380000E-01  5.37000000E-02  1.17200000E+04
  1.75900000E+03  4.00800000E+02  1.13700000E+02  3.70300000E+01  1.32700000E+01
  5.02500000E+00  1.17200000E+04  1.75900000E+03  1.13700000E+02  3.70300000E+01
  1.32700000E+01  5.02500000E+00  1.01300000E+00  3.02300000E-01  1.77000000E+01
  3.85400000E+00  1.04600000E+00  2.75300000E-01  1.18500000E+00  1.30100000E+01
  1.96200000E+00  4.44600000E-01  1.22000000E-01  7.27000000E-01
Contraction coefficients                   R   N=         114
  2.21449782E-04  1.71829831E-03  8.92347121E-03  3.63017943E-02  1.17622114E-01
  2.86043238E-01  4.22606664E-01  2.57743406E-01  2.39189064E-02 -4.95217512E-03
  1.71778831E-03 -8.92089122E-04  2.45099759E-04 -6.45229879E-05 -4.96566035E-04
 -2.62797440E-03 -1.06672907E-02 -3.71310547E-02 -9.80321862E-02 -2.03404815E-01
 -1.52429984E-01  4.82741597E-01  6.29170014E-01  6.16417210E-02 -1.47981018E-02
  3.61049762E-03  2.21659924E-05  1.71205618E-04  9.01915585E-04  3.69276659E-03
  1.28005366E-02  3.46545199E-02  7.28246181E-02  6.08251883E-02 -2.42229806E-01
 -4.85682520E-01  5.63401136E-01  6.53855755E-01  2.66519785E-02  9.15366063E-06
  7.08676061E-05  3.71800664E-04  1.53124710E-03  5.27176726E-03  1.44391325E-02
  3.00132500E-02  2.61241854E-02 -1.07015412E-01 -2.17408973E-01  2.99272883E-01
  6.52012023E-01 -1.13713457E+00  1.00000000E+00  1.98166421E-03  1.61294743E-02
  7.65786727E-02  2.32696435E-01  4.24453002E-01  3.73264813E-01  7.86854672E-02
 -5.99928275E-03  2.64257562E-03 -8.56941821E-04 -6.48810471E-04 -5.27826030E-03
 -2.58073511E-02 -8.06165533E-02 -1.58441215E-01 -1.28148502E-01  2.56061750E-01
  5.87150610E-01  3.03679025E-01  1.41623375E-02  2.64138269E-04  2.12592935E-03
  1.05437702E-02  3.25382210E-02  6.58619012E-02  4.91785434E-02 -1.14548248E-01
 -3.08458320E-01 -1.66206466E-01  1.05819804E+00  1.00000000E+00  4.48775322E-02
  2.02456429E-01  4.24772967E-01  6.17778187E-01  1.00000000E+00  7.11859989E-04
  5.48520206E-03  2.79099247E-02  1.05133208E-01  2.84002488E-01  4.51673950E-01
  2.73208124E-01 -3.13436252E-07 -6.17665315E-05 -4.15726173E-03 -1.41000865E-02
 -1.26138482E-01 -1.09614593E-01  1.09868833E+00  1.00000000E+00  6.26791663E-02
  3.33536566E-01  7.41239642E-01  1.00000000E+00  1.00000000E+00  3.34987264E-02
  2.34800801E-01  8.13682958E-01  1.00000000E+00  1.00000000E+00
Coordinates of each shell                  R   N=          60
  0.00000000E+00  0.00000000E+00 -1.27445156E+00  0.00000000E+00  0.00000000E+00
 -1.27445156E+00  0.00000000E+00  0.00000000E+00 -1.27445156E+00  0.00000000E+00
  0.00000000E+00 -1.27445156E+00  0.00000000E+00  0.00000000E+00 -1.27445156E+00
  0.00000000E+00  0.00000000E+00 -1.27445156E+00  0.00000000E+00  0.00000000E+00
 -1.27445156E+00  0.00000000E+00  0.00000000E+00 -1.27445156E+00  0.00000000E+00
  0.00000000E+00 -1.27445156E+00  0.00000000E+00  0.00000000E+00 -1.27445156E+00
  0.00000000E+00  0.00000000E+00 -1.27445156E+00  0.00000000E+00  0.00000000E+00
  2.63231778E+00  0.00000000E+00  0.00000000E+00  2.63231778E+00  0.00000000E+00
  0.00000000E+00  2.63231778E+00  0.00000000E+00  0.00000000E+00  2.63231778E+00
  0.00000000E+00  0.00000000E+00  2.63231778E+00  0.00000000E+00  0.00000000E+00
  2.63231778E+00  0.00000000E+00  0.00000000E+00  4.43048894E+00  0.00000000E+00
  0.00000000E+00  4.43048894E+00  0.00000000E+00  0.00000000E+00  4.43048894E+00
Overlap Matrix                             R   N=        1081
  1.00000000E+00  2.17674882E-05  1.00000000E+00  1.15000317E-04  1.12130259E-03
  1.00000000E+00  6.57152786E-03  4.91349949E-02  2.32053311E-01  1.00000000E+00
  8.00941092E-03  6.15138629E-02  2.93346058E-01 -7.44036851E-01  1.00000000E+00
  0.00000000E+00  0.00000000E+00  0.00000000E+00  0.00000000E+00  0.00000000E+00
  1.00000000E+00  0.00000000E+00  0.00000000E+00  0.00000000E+00  0.00000000E+00
  0.00000000E+00  0.00000000E+00  1.00000000E+00 -4.69137651E-17 -1.46858170E-16
 -2.77407997E-16 -1.89366043E-16 -4.95363529E-18  0.00000000E+00  0.00000000E+00
  1.00000000E+00  0.00000000E+00  0.00000000E+00  0.00000000E+00  0.00000000E+00
  0.00000000E+00 -3.67550363E-05  0.00000000E+00  0.00000000E+00  1.00000000E+00
  0.00000000E+00  0.00000000E+00  0.00000000E+00  0.00000000E+00  0.00000000E+00
  0.00000000E+00 -3.67550363E-05  0.00000000E+00  0.00000000E+00  1.00000000E+00
  8.80081245E-18  1.22674248E-17  2.79305131E-16  3.25561895E-16 -3.66071782E-17
  0.00000000E+00  0.00000000E+00 -3.67550363E-05  0.00000000E+00  0.00000000E+00
  1.00000000E+00  0.00000000E+00  0.00000000E+00  0.00000000E+00  0.00000000E+00
  0.00000000E+00 -7.48770346E-03  0.00000000E+00  0.00000000E+00 -1.38053824E-01
  0.00000000E+00  0.00000000E+00  1.00000000E+00  0.00000000E+00  0.00000000E+00
  0.00000000E+00  0.00000000E+00  0.00000000E+00  0.00000000E+00 -7.48770346E-03
  0.00000000E+00  0.00000000E+00 -1.38053824E-01  0.00000000E+00  0.00000000E+00
  1.00000000E+00 -3.08026767E-18 -1.93760151E-17 -6.40454548E-17 -2.52170682E-16
  1.72276756E-17  0.00000000E+00  0.00000000E+00 -7.48770346E-03  0.00000000E+00
  0.00000000E+00 -1.38053824E-01  0.00000000E+00  0.00000000E+00  1.00000000E+00
  0.00000000E+00  0.00000000E+00  0.00000000E+00  0.00000000E+00  0.00000000E+00
  6.23359264E-03  0.00000000E+00  0.00000000E+00  1.33699289E-01  0.00000000E+00
  0.00000000E+00  7.10830511E-01  0.00000000E+00  0.00000000E+00  1.00000000E+00
  0.00000000E+00  0.00000000E+00  0.00000000E+00  0.00000000E+00  0.00000000E+00
  0.00000000E+00  6.23359264E-03  0.00000000E+00  0.00000000E+00  1.33699289E-01
  0.00000000E+00  0.00000000E+00  7.10830511E-01  0.00000000E+00  0.00000000E+00
  1.00000000E+00 -4.50195790E-20 -1.19359820E-18  8.44958859E-18  1.19632092E-17
 -7.39660895E-17  0.00000000E+00  0.00000000E+00  6.23359264E-03  0.00000000E+00
  0.00000000E+00  1.33699289E-01  0.00000000E+00  0.00000000E+00  7.10830511E-01
  0.00000000E+00  0.00000000E+00  1.00000000E+00  0.00000000E+00  0.00000000E+00
  0.00000000E+00  0.00000000E+00  0.00000000E+00  0.00000000E+00  0.00000000E+00
 -1.29552749E-16  0.00000000E+00  0.00000000E+00 -1.43093897E-16  0.00000000E+00
  0.00000000E+00 -7.99247082E-17  0.00000000E+00  0.00000000E+00  0.00000000E+00
  1.00000000E+00  0.00000000E+00  0.00000000E+00  0.00000000E+00  0.00000000E+00
  0.00000000E+00 -1.12195972E-16  0.00000000E+00  0.00000000E+00 -1.23922950E-16
  0.00000000E+00  0.00000000E+00 -6.92168277E-17  0.00000000E+00  0.00000000E+00
  0.00000000E+00  0.00000000E+00  0.00000000E+00  0.00000000E+00  1.00000000E+00
  0.00000000E+00  0.00000000E+00  0.00000000E+00  0.00000000E+00  0.00000000E+00
  0.00000000E+00 -1.12195972E-16  0.00000000E+00  0.00000000E+00 -1.23922950E-16
  0.00000000E+00  0.00000000E+00 -6.92168277E-17  0.00000000E+00  0.00000000E+00
  0.00000000E+00  0.00000000E+00  0.00000000E+00  0.00000000E+00  1.00000000E+00
  0.00000000E+00  0.00000000E+00  0.00000000E+00  0.00000000E+00  0.00000000E+00
  0.00000000E+00  0.00000000E+00  0.00000000E+00  0.00000000E+00  0.00000000E+00
  0.00000000E+00  0.00000000E+00  0.00000000E+00  0.00000000E+00  0.00000000E+00
  0.00000000E+00  0.00000000E+00  0.00000000E+00  0.00000000E+00  0.00000000E+00
  1.00000000E+00  0.00000000E+00  0.00000000E+00  0.00000000E+00  0.00000000E+00
  0.00000000E+00  0.00000000E+00  0.00000000E+00  0.00000000E+00  0.00000000E+00
  0.00000000E+00  0.00000000E+00  0.00000000E+00  0.00000000E+00  0.00000000E+00
  0.00000000E+00  0.00000000E+00  0.00000000E+00  0.00000000E+00  0.00000000E+00
  0.00000000E+00  0.00000000E+00  1.00000000E+00  0.00000000E+00  0.00000000E+00
  0.00000000E+00  0.00000000E+00  0.00000000E+00  0.00000000E+00  0.00000000E+00
 -7.82901821E-19  0.00000000E+00  0.00000000E+00 -1.34443319E-17  0.00000000E+00
  0.00000000E+00  7.60874295E-18  0.00000000E+00  0.00000000E+00  0.00000000E+00
  3.30975144E-01  0.00000000E+00  0.00000000E+00  0.00000000E+00  0.00000000E+00
  1.00000000E+00  0.00000000E+00  0.00000000E+00  0.00000000E+00  0.00000000E+00
  0.00000000E+00 -6.78012866E-19  0.00000000E+00  0.00000000E+00 -1.16431329E-17
  0.00000000E+00  0.00000000E+00  6.58936469E-18  0.00000000E+00  0.00000000E+00
  0.00000000E+00  0.00000000E+00  0.00000000E+00  0.00000000E+00  3.30975144E-01
  0.00000000E+00  0.00000000E+00  0.00000000E+00  0.00000000E+00  1.00000000E+00
  0.00000000E+00  0.00000000E+00  0.00000000E+00  0.00000000E+00  0.00000000E+00
  0.00000000E+00 -6.78012866E-19  0.00000000E+00  0.00000000E+00 -1.16431329E-17
  0.00000000E+00  0.00000000E+00  6.58936469E-18  0.00000000E+00  0.00000000E+00
  0.00000000E+00  0.00000000E+00  0.00000000E+00  0.00000000E+00  3.30975144E-01
  0.00000000E+00  0.00000000E+00  0.00000000E+00  0.00000000E+00  1.00000000E+00
  0.00000000E+00  0.00000000E+00  0.00000000E+00  0.00000000E+00  0.00000000E+00
  0.00000000E+00  0.00000000E+00  0.00000000E+00  0.00000000E+00  0.00000000E+00
  0.00000000E+00  0.00000000E+00  0.00000000E+00  0.00000000E+00  0.00000000E+00
  0.00000000E+00  0.00000000E+00  0.00000000E+00  0.00000000E+00  0.00000000E+00
  3.30975144E-01  0.00000000E+00  0.00000000E+00  0.00000000E+00  0.00000000E+00
  1.00000000E+00  0.00000000E+00  0.00000000E+00  0.00000000E+00  0.00000000E+00
  0.00000000E+00  0.00000000E+00  0.00000000E+00  0.00000000E+00  0.00000000E+00
  0.00000000E+00  0.00000000E+00  0.00000000E+00  0.00000000E+00  0.00000000E+00
  0.00000000E+00  0.00000000E+00  0.00000000E+00  0.00000000E+00  0.00000000E+00
  0.00000000E+00  0.00000000E+00  3.30975144E-01  0.00000000E+00  0.00000000E+00
  0.00000000E+00  0.00000000E+00  1.00000000E+00  5.15737866E-06  7.51873052E-05
  9.25234854E-04 -2.56145629E-02  2.07747426E-02  0.00000000E+00  0.00000000E+00
 -1.57144069E-05  0.00000000E+00  0.00000000E+00  3.44540965E-03  0.00000000E+00
  0.00000000E+00  4.72035719E-02  0.00000000E+00  0.00000000E+00  2.74515147E-02
  2.75597156E-02  0.00000000E+00  0.00000000E+00  0.00000000E+00  0.00000000E+00
  4.35676861E-02  0.00000000E+00  0.00000000E+00  0.00000000E+00  0.00000000E+00
  1.00000000E+00  2.55160553E-05  3.78850180E-04  1.01879315E-02 -1.48016221E-01
  1.24403466E-01  0.00000000E+00  0.00000000E+00 -3.10230710E-05  0.00000000E+00
  0.00000000E+00  3.06064135E-02  0.00000000E+00  0.00000000E+00  2.58598529E-01
  0.00000000E+00  0.00000000E+00  1.60235368E-01  1.56875229E-01  0.00000000E+00
  0.00000000E+00  0.00000000E+00  0.00000000E+00  2.35678188E-01  0.00000000E+00
  0.00000000E+00  0.00000000E+00  0.00000000E+00  2.14476014E-01  1.00000000E+00
  5.41292390E-04  5.39556619E-03  6.03112719E-02 -2.88602963E-01  2.76353745E-01
  0.00000000E+00  0.00000000E+00  3.16085169E-03  0.00000000E+00  0.00000000E+00
  1.10729381E-01  0.00000000E+00  0.00000000E+00  4.61373722E-01  0.00000000E+00
  0.00000000E+00  3.34616366E-01  2.66378273E-01  0.00000000E+00  0.00000000E+00
  0.00000000E+00  0.00000000E+00  4.12101021E-01  0.00000000E+00  0.00000000E+00
  0.00000000E+00  0.00000000E+00  1.83816867E-01  7.92109402E-01  1.00000000E+00
  0.00000000E+00  0.00000000E+00  0.00000000E+00  0.00000000E+00  0.00000000E+00
 -7.71313025E-06  0.00000000E+00  0.00000000E+00  5.51492529E-03  0.00000000E+00
  0.00000000E+00  4.96725400E-02  0.00000000E+00  0.00000000E+00  3.04780895E-02
  0.00000000E+00  0.00000000E+00  0.00000000E+00  5.19118860E-02  0.00000000E+00
  0.00000000E+00  0.00000000E+00  0.00000000E+00  7.85511863E-02  0.00000000E+00
  0.00000000E+00  0.00000000E+00  0.00000000E+00  0.00000000E+00  0.00000000E+00
  1.00000000E+00  0.00000000E+00  0.00000000E+00  0.00000000E+00  0.00000000E+00
  0.00000000E+00  0.00000000E+00 -7.71313025E-06  0.00000000E+00  0.00000000E+00
  5.51492529E-03  0.00000000E+00  0.00000000E+00  4.96725400E-02  0.00000000E+00
  0.00000000E+00  3.04780895E-02  0.00000000E+00  0.00000000E+00  0.00000000E+00
  5.19118860E-02  0.00000000E+00  0.00000000E+00  0.00000000E+00  0.00000000E+00
  7.85511863E-02  0.00000000E+00  0.00000000E+00  0.00000000E+00  0.00000000E+00
  0.00000000E+00  0.00000000E+00  1.00000000E+00  2.61565099E-08 -2.05779810E-05
 -1.18148384E-02  4.33604063E-02 -1.84900792E-02  0.00000000E+00  0.00000000E+00
 -1.61834829E-04  0.00000000E+00  0.00000000E+00 -3.39714385E-02  0.00000000E+00
  0.00000000E+00 -4.42533344E-02  0.00000000E+00  0.00000000E+00  5.26627151E-03
 -1.07993468E-01  0.00000000E+00  0.00000000E+00  0.00000000E+00  0.00000000E+00
  1.97524781E-02  0.00000000E+00  0.00000000E+00  0.00000000E+00  0.00000000E+00
 -2.54951409E-16  5.35165170E-16  2.48206127E-16  0.00000000E+00  0.00000000E+00
  1.00000000E+00  0.00000000E+00  0.00000000E+00  0.00000000E+00  0.00000000E+00
  0.00000000E+00  1.90611570E-03  0.00000000E+00  0.00000000E+00  5.85008338E-02
  0.00000000E+00  0.00000000E+00  2.32858763E-01  0.00000000E+00  0.00000000E+00
  1.72090729E-01  0.00000000E+00  0.00000000E+00  0.00000000E+00  2.27529757E-01
  0.00000000E+00  0.00000000E+00  0.00000000E+00  0.00000000E+00  3.58427557E-01
  0.00000000E+00  0.00000000E+00  0.00000000E+00  0.00000000E+00  0.00000000E+00
  0.00000000E+00  5.01271483E-01  0.00000000E+00  0.00000000E+00  1.00000000E+00
  0.00000000E+00  0.00000000E+00  0.00000000E+00  0.00000000E+00  0.00000000E+00
  0.00000000E+00  1.90611570E-03  0.00000000E+00  0.00000000E+00  5.85008338E-02
  0.00000000E+00  0.00000000E+00  2.32858763E-01  0.00000000E+00  0.00000000E+00
  1.72090729E-01  0.00000000E+00  0.00000000E+00  0.00000000E+00  2.27529757E-01
  0.00000000E+00  0.00000000E+00  0.00000000E+00  0.00000000E+00  3.58427557E-01
  0.00000000E+00  0.00000000E+00  0.00000000E+00  0.00000000E+00  0.00000000E+00
  0.00000000E+00  5.01271483E-01  0.00000000E+00  0.00000000E+00  1.00000000E+00
 -2.84571749E-03 -2.41463613E-02 -1.62966042E-01  1.32328153E-01 -1.05047349E-01
  0.00000000E+00  0.00000000E+00 -1.35388313E-02  0.00000000E+00  0.00000000E+00
 -2.29252060E-01  0.00000000E+00  0.00000000E+00 -9.71292558E-02  0.00000000E+00
  0.00000000E+00  3.95679412E-02 -2.54233969E-01  0.00000000E+00  0.00000000E+00
  0.00000000E+00  0.00000000E+00  1.30025185E-01  0.00000000E+00  0.00000000E+00
  0.00000000E+00  0.00000000E+00  3.61373890E-17 -1.50437349E-17  0.00000000E+00
  0.00000000E+00  0.00000000E+00  5.01271483E-01  0.00000000E+00  0.00000000E+00
  1.00000000E+00 -1.13380120E-05 -1.15499043E-04  1.46918835E-02 -4.26231240E-04
  2.09255002E-03  0.00000000E+00  0.00000000E+00  1.72955271E-04  0.00000000E+00
  0.00000000E+00  3.46921610E-02  0.00000000E+00  0.00000000E+00 -1.54314769E-02
  0.00000000E+00  0.00000000E+00 -4.26269730E-03  6.10744794E-02  0.00000000E+00
  0.00000000E+00  0.00000000E+00  0.00000000E+00 -5.33837840E-03  0.00000000E+00
  0.00000000E+00  0.00000000E+00  0.00000000E+00  0.00000000E+00  0.00000000E+00
  0.00000000E+00  0.00000000E+00  0.00000000E+00  1.07025461E-15  0.00000000E+00
  0.00000000E+00 -6.04232719E-16  1.00000000E+00  0.00000000E+00  0.00000000E+00
  0.00000000E+00  0.00000000E+00  0.00000000E+00 -3.54364065E-05  0.00000000E+00
  0.00000000E+00 -9.67672009E-03  0.00000000E+00  0.00000000E+00 -2.36993371E-02
  0.00000000E+00  0.00000000E+00 -6.30152719E-03  0.00000000E+00  0.00000000E+00
  0.00000000E+00 -6.01854370E-02  0.00000000E+00  0.00000000E+00  0.00000000E+00
  0.00000000E+00 -1.11850502E-02  0.00000000E+00  0.00000000E+00  0.00000000E+00
  0.00000000E+00  0.00000000E+00  0.00000000E+00  9.26867679E-16  0.00000000E+00
  0.00000000E+00 -5.23280885E-16  0.00000000E+00  0.00000000E+00  0.00000000E+00
  1.00000000E+00  0.00000000E+00  0.00000000E+00  0.00000000E+00  0.00000000E+00
  0.00000000E+00  0.00000000E+00 -3.54364065E-05  0.00000000E+00  0.00000000E+00
 -9.67672009E-03  0.00000000E+00  0.00000000E+00 -2.36993371E-02  0.00000000E+00
  0.00000000E+00 -6.30152719E-03  0.00000000E+00  0.00000000E+00  0.00000000E+00
 -6.01854370E-02  0.00000000E+00  0.00000000E+00  0.00000000E+00  0.00000000E+00
 -1.11850502E-02  0.00000000E+00  0.00000000E+00  0.00000000E+00  0.00000000E+00
  0.00000000E+00  0.00000000E+00  9.26867679E-16  0.00000000E+00  0.00000000E+00
 -5.23280885E-16  0.00000000E+00  0.00000000E+00  0.00000000E+00  1.00000000E+00
  0.00000000E+00  0.00000000E+00  0.00000000E+00  0.00000000E+00  0.00000000E+00
  0.00000000E+00  0.00000000E+00  0.00000000E+00  0.00000000E+00  0.00000000E+00
  0.00000000E+00  0.00000000E+00  0.00000000E+00  0.00000000E+00  0.00000000E+00
  0.00000000E+00  0.00000000E+00  0.00000000E+00  0.00000000E+00  0.00000000E+00
  1.29922721E-02  0.00000000E+00  0.00000000E+00  0.00000000E+00  0.00000000E+00
  1.96862364E-02  0.00000000E+00  0.00000000E+00  0.00000000E+00  0.00000000E+00
  0.00000000E+00  0.00000000E+00  0.00000000E+00  0.00000000E+00  0.00000000E+00
  0.00000000E+00  0.00000000E+00  0.00000000E+00  0.00000000E+00  1.00000000E+00
  0.00000000E+00  0.00000000E+00  0.00000000E+00  0.00000000E+00  0.00000000E+00
  0.00000000E+00  0.00000000E+00  0.00000000E+00  0.00000000E+00  0.00000000E+00
  0.00000000E+00  0.00000000E+00  0.00000000E+00  0.00000000E+00  0.00000000E+00
  0.00000000E+00  0.00000000E+00  0.00000000E+00  0.00000000E+00  0.00000000E+00
  0.00000000E+00  1.29922721E-02  0.00000000E+00  0.00000000E+00  0.00000000E+00
  0.00000000E+00  1.96862364E-02  0.00000000E+00  0.00000000E+00  0.00000000E+00
  0.00000000E+00  0.00000000E+00  0.00000000E+00  0.00000000E+00  0.00000000E+00
  0.00000000E+00  0.00000000E+00  0.00000000E+00  0.00000000E+00  0.00000000E+00
  1.00000000E+00  1.87588074E-05  2.76456140E-04  2.55896498E-03 -8.90203080E-02
  1.24270893E-01  0.00000000E+00  0.00000000E+00 -1.23835576E-04  0.00000000E+00
  0.00000000E+00  5.26222786E-03  0.00000000E+00  0.00000000E+00  1.79783768E-01
  0.00000000E+00  0.00000000E+00  2.21946524E-01  3.45963120E-02  0.00000000E+00
  0.00000000E+00  0.00000000E+00  0.00000000E+00  2.99506387E-01  0.00000000E+00
  0.00000000E+00  0.00000000E+00  0.00000000E+00  5.07353742E-02  3.03360988E-01
  5.00875269E-01  0.00000000E+00  0.00000000E+00  2.84697131E-01  0.00000000E+00
  0.00000000E+00  6.23087681E-01  2.32147535E-01  0.00000000E+00  0.00000000E+00
  0.00000000E+00  0.00000000E+00  1.00000000E+00  5.18108700E-04  4.56188496E-03
  3.44139532E-02 -2.44793330E-01  3.30180813E-01  0.00000000E+00  0.00000000E+00
  1.46766680E-03  0.00000000E+00  0.00000000E+00  5.01277044E-02  0.00000000E+00
  0.00000000E+00  4.02293083E-01  0.00000000E+00  0.00000000E+00  5.08310509E-01
  1.11407426E-01  0.00000000E+00  0.00000000E+00  0.00000000E+00  0.00000000E+00
  5.11379719E-01  0.00000000E+00  0.00000000E+00  0.00000000E+00  0.00000000E+00
  6.52387219E-02  3.56703720E-01  6.50241234E-01  0.00000000E+00  0.00000000E+00
  1.05972152E-01  0.00000000E+00  0.00000000E+00  3.90647712E-01  2.39282417E-02
  0.00000000E+00  0.00000000E+00  0.00000000E+00  0.00000000E+00  6.84860251E-01
  1.00000000E+00  0.00000000E+00  0.00000000E+00  0.00000000E+00  0.00000000E+00
  0.00000000E+00 -2.17013328E-05  0.00000000E+00  0.00000000E+00  6.31840004E-04
  0.00000000E+00  0.00000000E+00  2.91743464E-02  0.00000000E+00  0.00000000E+00
  3.64214784E-02  0.00000000E+00  0.00000000E+00  0.00000000E+00  8.12949321E-03
  0.00000000E+00  0.00000000E+00  0.00000000E+00  0.00000000E+00  8.81546570E-02
  0.00000000E+00  0.00000000E+00  0.00000000E+00  0.00000000E+00  0.00000000E+00
  0.00000000E+00  1.99442824E-01  0.00000000E+00  0.00000000E+00  3.94774577E-01
  0.00000000E+00  0.00000000E+00  0.00000000E+00  3.22083451E-01  0.00000000E+00
  0.00000000E+00  0.00000000E+00  0.00000000E+00  0.00000000E+00  1.00000000E+00
  0.00000000E+00  0.00000000E+00  0.00000000E+00  0.00000000E+00  0.00000000E+00
  0.00000000E+00 -2.17013328E-05  0.00000000E+00  0.00000000E+00  6.31840004E-04
  0.00000000E+00  0.00000000E+00  2.91743464E-02  0.00000000E+00  0.00000000E+00
  3.64214784E-02  0.00000000E+00  0.00000000E+00  0.00000000E+00  8.12949321E-03
  0.00000000E+00  0.00000000E+00  0.00000000E+00  0.00000000E+00  8.81546570E-02
  0.00000000E+00  0.00000000E+00  0.00000000E+00  0.00000000E+00  0.00000000E+00
  0.00000000E+00  1.99442824E-01  0.00000000E+00  0.00000000E+00  3.94774577E-01
  0.00000000E+00  0.00000000E+00  0.00000000E+00  3.22083451E-01  0.00000000E+00
  0.00000000E+00  0.00000000E+00  0.00000000E+00  0.00000000E+00  1.00000000E+00
 -1.10083652E-05 -1.61475454E-04 -1.60408527E-03  5.29074884E-02 -3.30747942E-02
  0.00000000E+00  0.00000000E+00  5.75788672E-05  0.00000000E+00  0.00000000E+00
 -4.48715731E-03  0.00000000E+00  0.00000000E+00 -1.01262484E-01  0.00000000E+00
  0.00000000E+00 -2.69969669E-02 -4.01838299E-02  0.00000000E+00  0.00000000E+00
  0.00000000E+00  0.00000000E+00 -6.38768207E-02  0.00000000E+00  0.00000000E+00
  0.00000000E+00  0.00000000E+00 -1.07116516E-01 -4.56214828E-01 -3.92558664E-01
  0.00000000E+00  0.00000000E+00 -3.79720996E-01  0.00000000E+00  0.00000000E+00
 -1.15006982E-01 -1.69922139E-01  0.00000000E+00  0.00000000E+00  0.00000000E+00
  0.00000000E+00  2.82533971E-16  0.00000000E+00  0.00000000E+00  0.00000000E+00
  1.00000000E+00
Core Hamiltonian Matrix                    R   N=        1081
 -2.02088978E+02  2.76815622E+00 -5.05657410E+01 -8.54255617E-01  3.15142902E+00
 -2.00164302E+01 -1.62751593E+00 -9.76392657E-01 -6.24145061E+00 -9.66748910E+00
 -1.52628351E+00 -2.60566008E+00 -4.50982754E+00  4.49218388E+00 -6.92822371E+00
  0.00000000E+00  0.00000000E+00  0.00000000E+00  0.00000000E+00  0.00000000E+00
 -4.98532382E+01  0.00000000E+00  0.00000000E+00  0.00000000E+00  0.00000000E+00
  0.00000000E+00  0.00000000E+00 -4.98532382E+01 -1.81369583E-02 -1.07887073E-01
 -2.75148477E-02 -1.83650705E-02 -1.02960938E-02  0.00000000E+00  0.00000000E+00
 -4.98642684E+01  0.00000000E+00  0.00000000E+00  0.00000000E+00  0.00000000E+00
  0.00000000E+00  3.32714275E+00  0.00000000E+00  0.00000000E+00 -1.84260231E+01
  0.00000000E+00  0.00000000E+00  0.00000000E+00  0.00000000E+00  0.00000000E+00
  0.00000000E+00  3.32714275E+00  0.00000000E+00  0.00000000E+00 -1.84260231E+01
  4.86412921E-03 -3.32765284E-02 -3.84705147E-01  5.06856383E-02 -2.07808651E-01
  0.00000000E+00  0.00000000E+00  3.31891890E+00  0.00000000E+00  0.00000000E+00
 -1.85856822E+01  0.00000000E+00  0.00000000E+00  0.00000000E+00  0.00000000E+00
  0.00000000E+00 -1.00294142E+00  0.00000000E+00  0.00000000E+00  4.40234709E+00
  0.00000000E+00  0.00000000E+00 -8.03930195E+00  0.00000000E+00  0.00000000E+00
  0.00000000E+00  0.00000000E+00  0.00000000E+00  0.00000000E+00 -1.00294142E+00
  0.00000000E+00  0.00000000E+00  4.40234709E+00  0.00000000E+00  0.00000000E+00
 -8.03930195E+00 -2.04146327E-03  1.23426480E-02  1.97891712E-02  8.53559694E-01
 -7.25477100E-01  0.00000000E+00  0.00000000E+00 -9.99601253E-01  0.00000000E+00
  0.00000000E+00  4.33411841E+00  0.00000000E+00  0.00000000E+00 -8.78548406E+00
  0.00000000E+00  0.00000000E+00  0.00000000E+00  0.00000000E+00  0.00000000E+00
 -2.43566599E-01  0.00000000E+00  0.00000000E+00 -1.63235569E+00  0.00000000E+00
  0.00000000E+00 -4.13380007E+00  0.00000000E+00  0.00000000E+00 -4.82345557E+00
  0.00000000E+00  0.00000000E+00  0.00000000E+00  0.00000000E+00  0.00000000E+00
  0.00000000E+00 -2.43566599E-01  0.00000000E+00  0.00000000E+00 -1.63235569E+00
  0.00000000E+00  0.00000000E+00 -4.13380007E+00  0.00000000E+00  0.00000000E+00
 -4.82345557E+00 -1.10539461E-04 -3.00033619E-03 -6.63136345E-02  5.53855419E-01
 -6.32878602E-01  0.00000000E+00  0.00000000E+00 -2.43751116E-01  0.00000000E+00
  0.00000000E+00 -1.69428170E+00  0.00000000E+00  0.00000000E+00 -4.64249638E+00
  0.00000000E+00  0.00000000E+00 -5.28125654E+00 -7.07313609E-05 -6.31248829E-03
 -1.17099060E-01  2.78955824E-01 -2.54995046E-01  0.00000000E+00  0.00000000E+00
 -3.60245413E-02  0.00000000E+00  0.00000000E+00 -4.36208431E-01  0.00000000E+00
  0.00000000E+00 -5.06493459E-01  0.00000000E+00  0.00000000E+00 -3.42801544E-01
 -1.35247520E+01  0.00000000E+00  0.00000000E+00  0.00000000E+00  0.00000000E+00
  0.00000000E+00 -2.98860441E-02  0.00000000E+00  0.00000000E+00 -2.92776015E-01
  0.00000000E+00  0.00000000E+00 -1.99664722E-01  0.00000000E+00  0.00000000E+00
 -1.55939059E-01  0.00000000E+00  0.00000000E+00  0.00000000E+00 -1.32872983E+01
  0.00000000E+00  0.00000000E+00  0.00000000E+00  0.00000000E+00  0.00000000E+00
  0.00000000E+00 -2.98860441E-02  0.00000000E+00  0.00000000E+00 -2.92776015E-01
  0.00000000E+00  0.00000000E+00 -1.99664722E-01  0.00000000E+00  0.00000000E+00
 -1.55939059E-01  0.00000000E+00  0.00000000E+00  0.00000000E+00 -1.32872983E+01
  0.00000000E+00  0.00000000E+00  0.00000000E+00  0.00000000E+00  0.00000000E+00
  0.00000000E+00  0.00000000E+00  0.00000000E+00  0.00000000E+00  0.00000000E+00
  0.00000000E+00  0.00000000E+00  0.00000000E+00  0.00000000E+00  0.00000000E+00
  0.00000000E+00  0.00000000E+00 -2.22044605E-16  0.00000000E+00  0.00000000E+00
 -1.30896463E+01  0.00000000E+00  0.00000000E+00  0.00000000E+00  0.00000000E+00
  0.00000000E+00  0.00000000E+00  0.00000000E+00  0.00000000E+00  0.00000000E+00
  0.00000000E+00  0.00000000E+00  0.00000000E+00  0.00000000E+00  0.00000000E+00
  0.00000000E+00  0.00000000E+00  0.00000000E+00  0.00000000E+00  0.00000000E+00
  0.00000000E+00  0.00000000E+00 -1.30896463E+01 -7.40222186E-05 -1.22025811E-03
 -3.01116718E-02  4.14348760E-01 -4.24814966E-01  0.00000000E+00  0.00000000E+00
 -2.68223988E-04  0.00000000E+00  0.00000000E+00 -1.07965430E-01  0.00000000E+00
  0.00000000E+00 -9.16811120E-01  0.00000000E+00  0.00000000E+00 -8.02118226E-01
 -3.05561732E+00  0.00000000E+00  0.00000000E+00  0.00000000E+00  0.00000000E+00
 -5.89810872E+00  0.00000000E+00  0.00000000E+00  0.00000000E+00  0.00000000E+00
  0.00000000E+00 -3.33721211E-04  0.00000000E+00  0.00000000E+00 -5.54873795E-02
  0.00000000E+00  0.00000000E+00 -3.87587977E-01  0.00000000E+00  0.00000000E+00
 -3.70913704E-01  0.00000000E+00  0.00000000E+00  0.00000000E+00 -2.85653007E+00
  0.00000000E+00  0.00000000E+00  0.00000000E+00  0.00000000E+00 -5.44582358E+00
  0.00000000E+00  0.00000000E+00  0.00000000E+00  0.00000000E+00  0.00000000E+00
  0.00000000E+00 -3.33721211E-04  0.00000000E+00  0.00000000E+00 -5.54873795E-02
  0.00000000E+00  0.00000000E+00 -3.87587977E-01  0.00000000E+00  0.00000000E+00
 -3.70913704E-01  0.00000000E+00  0.00000000E+00  0.00000000E+00 -2.85653007E+00
  0.00000000E+00  0.00000000E+00  0.00000000E+00  0.00000000E+00 -5.44582358E+00
  0.00000000E+00  0.00000000E+00  0.00000000E+00  0.00000000E+00  0.00000000E+00