Jobname.Temp
SP        U                             6-31G(d)            
Number of atoms                            I                3
Charge                                     I                0
Multiplicity                               I                3
Number of electrons                        I                8
Number of alpha electrons                  I                5
Number of beta electrons                   I                3
Atomic numbers                             I   N=           3
           6           1           1
Current cartesian coordinates              R   N=           9
  8.32667268E-17  3.15898470E-17  3.31756453E-01 -1.64078877E+00 -1.69348825E-16
 -9.95269358E-01  1.64078877E+00 -2.01902572E-17 -9.95269358E-01
Nuclear charges                            R   N=           3
  6.00000000E+00  1.00000000E+00  1.00000000E+00
Number of basis functions                  I               19
Number of contracted shells                I                8
Number of primitive shells                 I               19
Highest angular momentum                   I                2
Largest degree of contraction              I                6
Shell types                                I   N=           8
           0          -1          -1           2           0           0
           0           0
Number of primitives per shell             I   N=           8
           6           3           1           1           3           1
           3           1
Shell to atom map                          I   N=           8
           1           1           1           1           2           2
           3           3
Primitive exponents                        R   N=          19
  3.04752490E+03  4.57369510E+02  1.03948690E+02  2.92101550E+01  9.28666300E+00
  3.16392700E+00  7.86827240E+00  1.88128850E+00  5.44249300E-01  1.68714400E-01
  8.00000000E-01  1.87311370E+01  2.82539370E+00  6.40121700E-01  1.61277800E-01
  1.87311370E+01  2.82539370E+00  6.40121700E-01  1.61277800E-01
Contraction coefficients                   R   N=          19
  1.83470016E-03  1.40373012E-02  6.88426061E-02  2.32184421E-01  4.67941342E-01
  3.62312032E-01 -1.19332409E-01 -1.60854212E-01  1.14345648E+00  1.00000000E+00
  1.00000000E+00  3.34945995E-02  2.34726947E-01  8.13757318E-01  1.00000000E+00
  3.34945995E-02  2.34726947E-01  8.13757318E-01  1.00000000E+00
P(S=P) Contraction coefficients            R   N=          19
  0.00000000E+00  0.00000000E+00  0.00000000E+00  0.00000000E+00  0.00000000E+00
  0.00000000E+00  6.89990956E-02  3.16423980E-01  7.44308252E-01  1.00000000E+00
  0.00000000E+00  0.00000000E+00  0.00000000E+00  0.00000000E+00  0.00000000E+00
  0.00000000E+00  0.00000000E+00  0.00000000E+00  0.00000000E+00
Coordinates of each shell                  R   N=          24
  8.32667268E-17  3.15898470E-17  3.31756453E-01  8.32667268E-17  3.15898470E-17
  3.31756453E-01  8.32667268E-17  3.15898470E-17  3.31756453E-01  8.32667268E-17
  3.15898470E-17  3.31756453E-01 -1.64078877E+00 -1.69348825E-16 -9.95269358E-01
 -1.64078877E+00 -1.69348825E-16 -9.95269358E-01  1.64078877E+00 -2.01902572E-17
 -9.95269358E-01  1.64078877E+00 -2.01902572E-17 -9.95269358E-01
Overlap Matrix                             R   N=         190
  1.00000000E+00  2.19058872E-01  1.00000000E+00 -7.12957830E-33  6.77473537E-34
  1.00000000E+00 -1.44073601E-33 -7.73912523E-33  0.00000000E+00  1.00000000E+00
 -1.66943514E-17  3.70811982E-17  1.02524313E-49  0.00000000E+00  1.00000000E+00
  1.84261053E-01  8.12273068E-01 -7.32507898E-34  0.00000000E+00  4.77769468E-17
  1.00000000E+00 -6.44441312E-34  1.85508453E-34  5.69754058E-01  0.00000000E+00
  0.00000000E+00  0.00000000E+00  1.00000000E+00 -3.22220656E-34  0.00000000E+00
  0.00000000E+00  5.69754058E-01  0.00000000E+00  0.00000000E+00  0.00000000E+00
  1.00000000E+00  0.00000000E+00  4.08660193E-17  0.00000000E+00  0.00000000E+00
  5.69754058E-01  0.00000000E+00  0.00000000E+00  0.00000000E+00  1.00000000E+00
  7.91027073E-02  7.10235064E-01 -2.71452712E-32  0.00000000E+00  3.97419373E-17
  6.29936196E-01 -1.91356998E-32  0.00000000E+00  0.00000000E+00  1.00000000E+00
  7.91027073E-02  7.10235064E-01 -9.04842373E-33  0.00000000E+00  3.97419373E-17
  6.29936196E-01 -6.37856661E-33  0.00000000E+00  0.00000000E+00  3.33333333E-01
  1.00000000E+00  7.91027073E-02  7.10235064E-01 -9.04842373E-33  0.00000000E+00
  1.19225812E-16  6.29936196E-01 -6.37856661E-33  0.00000000E+00  0.00000000E+00
  3.33333333E-01  3.33333333E-01  1.00000000E+00  4.51947823E-65  0.00000000E+00
  0.00000000E+00 -1.56723296E-32  0.00000000E+00  0.00000000E+00  0.00000000E+00
 -1.10480014E-32  0.00000000E+00  0.00000000E+00  0.00000000E+00  0.00000000E+00
  1.00000000E+00  5.70551842E-49 -2.43535052E-48  6.88350545E-17  0.00000000E+00
 -1.56723296E-32  0.00000000E+00  0.00000000E+00  0.00000000E+00 -1.10480014E-32
  0.00000000E+00  0.00000000E+00  0.00000000E+00  0.00000000E+00  1.00000000E+00
  0.00000000E+00  0.00000000E+00  0.00000000E+00  6.88350545E-17  0.00000000E+00
  0.00000000E+00  0.00000000E+00  0.00000000E+00  0.00000000E+00  0.00000000E+00
  0.00000000E+00  0.00000000E+00  0.00000000E+00  0.00000000E+00  1.00000000E+00
  2.90740259E-02  2.57174558E-01 -2.74046434E-01 -3.35610088E-17 -2.21641382E-01
  3.66389485E-01 -3.98618000E-01 -4.88166257E-17 -3.22391512E-01  3.06189137E-01
  1.08970986E-01  2.37974123E-01  4.18329374E-17  2.76270302E-01  3.38333541E-17
  1.00000000E+00  8.92296325E-02  4.64067824E-01 -2.06100996E-01 -2.52400926E-17
 -1.66688940E-01  6.92412421E-01 -4.56136172E-01 -5.58605702E-17 -3.68910662E-01
  3.91262891E-01  3.41507928E-01  3.74053342E-01  1.05537763E-17  6.96985474E-02
  8.53561030E-18  6.58292049E-01  1.00000000E+00  2.90740259E-02  2.57174558E-01
  2.74046434E-01 -8.64837276E-18 -2.21641382E-01  3.66389485E-01  3.98618000E-01
 -1.25796092E-17 -3.22391512E-01  3.06189137E-01  1.08970986E-01  2.37974123E-01
 -1.07799750E-17 -2.76270302E-01  8.71855372E-18  2.20540277E-02  1.60208214E-01
  1.00000000E+00  8.92296325E-02  4.64067824E-01  2.06100996E-01 -6.50414682E-18
 -1.66688940E-01  6.92412421E-01  4.56136172E-01 -1.43947709E-17 -3.68910662E-01
  3.91262891E-01  3.41507928E-01  3.74053342E-01 -2.71961406E-18 -6.96985474E-02
  2.19955068E-18  1.60208214E-01  4.19630696E-01  6.58292049E-01  1.00000000E+00
Core Hamiltonian Matrix                    R   N=         190
 -1.88929291E+01 -3.86805079E+00 -5.73467279E+00  0.00000000E+00  0.00000000E+00
 -5.06364826E+00  0.00000000E+00  0.00000000E+00  0.00000000E+00 -4.94381913E+00
  2.67828583E-02  1.90095356E-01  0.00000000E+00  0.00000000E+00 -5.02220103E+00
 -3.33756743E+00 -4.58903287E+00  0.00000000E+00  0.00000000E+00  1.79541755E-01
 -4.54878159E+00  0.00000000E+00  0.00000000E+00 -2.57794839E+00  0.00000000E+00
  0.00000000E+00  0.00000000E+00 -3.04909344E+00  0.00000000E+00  0.00000000E+00
  0.00000000E+00 -2.47372672E+00  0.00000000E+00  0.00000000E+00  0.00000000E+00
 -2.87703222E+00  4.49934900E-03  1.27873359E-01  0.00000000E+00  0.00000000E+00
 -2.54189957E+00  2.09433943E-01  0.00000000E+00  0.00000000E+00 -2.98957986E+00
 -1.42543877E+00 -3.76380489E+00  0.00000000E+00  0.00000000E+00  1.27982242E-01
 -3.21018848E+00  0.00000000E+00  0.00000000E+00  1.06913586E-01 -3.87283955E+00
 -1.42214795E+00 -3.66154105E+00  0.00000000E+00  0.00000000E+00  7.02348543E-02
 -3.10035748E+00  0.00000000E+00  0.00000000E+00  4.98655753E-02 -1.95822474E+00
 -3.66275631E+00 -1.42430052E+00 -3.72843325E+00  0.00000000E+00  0.00000000E+00
  2.48477933E-01 -3.17219946E+00  0.00000000E+00  0.00000000E+00  1.86912623E-01
 -2.00997100E+00 -1.94916430E+00 -3.78820293E+00  0.00000000E+00  0.00000000E+00
  0.00000000E+00  0.00000000E+00  0.00000000E+00  0.00000000E+00  0.00000000E+00
  0.00000000E+00  0.00000000E+00  0.00000000E+00  0.00000000E+00  0.00000000E+00
 -2.67467422E+00  0.00000000E+00  0.00000000E+00  2.21671746E-01  0.00000000E+00
  0.00000000E+00  0.00000000E+00  1.85179763E-01  0.00000000E+00  0.00000000E+00
  0.00000000E+00  0.00000000E+00  0.00000000E+00  0.00000000E+00 -2.82991300E+00
  0.00000000E+00  0.00000000E+00  0.00000000E+00  1.21650336E-01  0.00000000E+00
  0.00000000E+00  0.00000000E+00  8.63697099E-02  0.00000000E+00  0.00000000E+00
  0.00000000E+00  0.00000000E+00  0.00000000E+00  0.00000000E+00 -2.64749291E+00
 -5.31656057E-01 -1.45202347E+00  1.34079678E+00 -2.01007685E-17  1.10316227E+00
 -1.68193112E+00  1.50963311E+00 -2.52022101E-17  1.23853778E+00 -1.47698483E+00
 -6.69316304E-01 -1.21626821E+00  5.34294960E-17 -1.14251289E+00  4.32123387E-17
 -3.40415821E+00 -1.61900814E+00 -2.61321639E+00  9.52109985E-01 -1.24054137E-17
  8.55989664E-01 -2.93883347E+00  1.36334110E+00 -1.96476260E-17  1.20981715E+00
 -1.98070654E+00 -1.71213354E+00 -1.91342835E+00  8.22233549E-18 -3.34825691E-01
  6.65000371E-18 -2.54232426E+00 -3.28821984E+00 -5.31656057E-01 -1.45202347E+00
 -1.34079678E+00 -5.17978882E-18  1.10316227E+00 -1.68193112E+00 -1.50963311E+00
 -6.49438485E-18  1.23853778E+00 -1.47698483E+00 -6.69316304E-01 -1.21626821E+00
 -1.37683048E-17  1.14251289E+00  1.11354344E-17 -1.53325371E-01 -7.71395962E-01
 -3.40415821E+00 -1.61900814E+00 -2.61321639E+00 -9.52109985E-01 -3.19676452E-18
  8.55989664E-01 -2.93883347E+00 -1.36334110E+00 -5.06301804E-18  1.20981715E+00
 -1.98070654E+00 -1.71213354E+00 -1.91342835E+00 -2.11882255E-18  3.34825691E-01
  1.71364667E-18 -7.71395962E-01 -1.72657174E+00 -2.54232426E+00 -3.28821984E+00
Ref - EOM-IP 1/A (alpha)                   R      3.745156569595300E-01
Dyson Orbital (left)                       R   N=          19
 -2.19273083E-16 -7.27047487E-17 -4.49182048E-17 -6.02012987E-01  2.03788487E-16
  5.65995080E-16 -2.60771951E-17 -5.26039500E-01  2.45041144E-17  7.36088202E-17
 -8.70346641E-18  3.69879525E-17  1.60126609E-16  3.94692055E-17  6.35155984E-04
  6.00878591E-17 -2.90314729E-16 -1.25769412E-17 -2.53653469E-16
Dyson Orbital (right)                      R   N=          19
 -2.25272026E-16 -4.57438728E-17 -5.79047567E-17 -6.01859409E-01  3.74259509E-16
  6.48025869E-16 -3.18808244E-17 -5.26198294E-01  1.32329784E-16  7.14529228E-17
 -2.32332743E-18  1.99934114E-17  1.69720166E-16  4.00678146E-17  1.16461607E-03
 -1.98915504E-17 -3.36155362E-16 -1.03466939E-16 -3.09190194E-16
Ref - EOM-IP 2/A (alpha)                   R      4.587275175098243E-01
Dyson Orbital (left)                       R   N=          19
  7.68459690E-02 -1.66352700E-01  2.60937840E-15  1.60537261E-16 -5.30953927E-01
 -3.56200042E-01  5.02935904E-15 -6.22066451E-18 -3.75029257E-01  1.94448919E-02
 -7.57705707E-03  5.09747071E-03 -2.97175018E-17 -4.00442897E-16  3.94679607E-17
  1.26989539E-01  1.18933642E-01  1.26989539E-01  1.18933642E-01
Dyson Orbital (right)                      R   N=          19
  7.83424298E-02 -1.69131253E-01  3.92552869E-15 -4.43930809E-16 -5.28762871E-01
 -3.60579669E-01  5.60433957E-15 -5.10470679E-17 -3.74875691E-01  1.91973064E-02
 -7.92708947E-03  5.58331599E-03 -2.88250584E-17 -4.84462194E-16 -2.46234343E-17
  1.27475051E-01  1.18955783E-01  1.27475051E-01  1.18955783E-01
EOM-SF 1/A - EOM-IP 1/A (alpha)            R      3.666381714099071E-01
Dyson Orbital (left)                       R   N=          19
  1.09469854E-01 -2.10429923E-01  3.22986059E-16  1.16881192E-15 -4.67303979E-01
 -5.19369064E-01  4.94943116E-15  1.40645494E-15 -3.59786182E-01  3.22760285E-03
 -1.89294005E-02  4.14246029E-02 -4.73697517E-17 -2.53179710E-17  1.80949799E-18
  1.17027890E-01  1.58973734E-01  1.17027890E-01  1.58973734E-01
Dyson Orbital (right)                      R   N=          19
  1.07504867E-01 -2.04847028E-01  9.07167617E-16  1.30962708E-15 -4.68284148E-01
 -5.16153176E-01  5.34613545E-15  1.09177688E-15 -3.62758356E-01  3.83863982E-03
 -1.93755680E-02  4.08814028E-02 -4.66207259E-17 -9.21758946E-17  1.50834429E-17
  1.16602620E-01  1.59485442E-01  1.16602620E-01  1.59485442E-01
EOM-SF 1/A - EOM-IP 2/A (alpha)            R      4.508500319602013E-01
Dyson Orbital (left)                       R   N=          19
 -2.53203984E-15  5.76093666E-15  1.27775425E-19 -6.24278324E-01 -2.43171772E-16
  5.58264526E-15 -2.04849947E-16 -4.94370451E-01 -1.09859249E-15 -3.84362437E-17
 -1.20464023E-16  1.28421651E-16  6.77051463E-16 -3.49332815E-17 -1.19138639E-01
  2.04204178E-15  6.62226127E-17  2.31166541E-15  1.03641602E-15
Dyson Orbital (right)                      R   N=          19
 -4.99452332E-16  1.07850217E-15 -6.05995928E-18 -6.19021303E-01  1.16930390E-15
  2.38150378E-15 -1.78633020E-16 -5.00096270E-01  7.79221576E-16  2.21795231E-17
  9.34324146E-17  9.74563522E-17  9.53608654E-16 -2.65419297E-17 -1.18146269E-01
 -1.81138283E-17 -9.77928479E-16  2.16397547E-16 -7.55046910E-17
EOM-EA 1/A - Ref (beta)                    R      2.740563625146999E-02
Dyson Orbital (left)                       R   N=          19
  1.17866925E-01 -1.71088392E-01  1.43357301E-15 -6.08902636E-17 -3.81024617E-01
 -6.63070724E-01  5.98180300E-15 -4.22152862E-16 -3.97575465E-01  3.00560684E-04
  6.69302975E-03  3.22849164E-02 -9.32415170E-18 -2.73858217E-16  3.76538010E-17
  9.92368547E-02  2.13289938E-01  9.92368547E-02  2.13289938E-01
Dyson Orbital (right)                      R   N=          19
  1.18193119E-01 -1.73062449E-01  1.35466419E-15  1.94549158E-15 -3.77250940E-01
 -6.73248324E-01  5.94182088E-15 -1.15810293E-15 -3.92618663E-01 -2.06157890E-04
  7.00446095E-03  3.29147636E-02 -9.34485250E-18 -2.81596279E-16  1.02398333E-16
  1.00456190E-01  2.23823283E-01  1.00456190E-01  2.23823283E-01
EOM-EA 2/A - Ref (beta)                    R      1.028580255230586E-01
Dyson Orbital (left)                       R   N=          19
  2.19136797E-16  5.44390904E-17  1.00025044E-16 -4.69115096E-01 -2.99596584E-16
 -3.78062528E-16  3.52382391E-18 -6.55168671E-01 -3.05714190E-16 -8.55758158E-17
 -4.18368544E-18 -2.62101515E-17 -4.84237815E-17 -2.51729611E-18  2.13956131E-02
 -4.26523011E-17  9.83154896E-17  3.41868986E-18  3.89065230E-17
Dyson Orbital (right)                      R   N=          19
 -5.18464584E-16  1.73759869E-15  1.27598184E-17 -4.67918994E-01 -1.79434137E-15
  8.30353922E-15 -8.10576583E-17 -6.56250521E-01 -1.92811340E-15 -1.09152855E-15
 -1.09544343E-15 -9.00852022E-16 -4.91633785E-17 -7.82560351E-18  2.18159523E-02
  4.80450071E-16 -5.90116176E-15  5.49525979E-16 -5.68866320E-15
EOM-EA 1/A - EOM-SF 1/A (beta)             R      1.952815070184703E-02
Dyson Orbital (left)                       R   N=          19
  2.96466361E-16 -1.26147145E-16 -4.66234967E-17  5.23118116E-01 -3.42165865E-16
 -7.15086537E-16 -1.45397310E-16  6.04335726E-01 -3.81421441E-16  9.48769558E-18
  4.65275140E-17  2.54880685E-17  1.10890710E-16 -2.23466251E-17 -2.97127842E-02
  1.27803910E-17 -1.10240433E-16  1.73494036E-16  4.19535474E-16
Dyson Orbital (right)                      R   N=          19
  3.81378941E-16  2.27062645E-17 -6.07616766E-19  5.06166966E-01 -1.24781890E-17
 -2.64894830E-15 -2.87587139E-18  6.20484143E-01  5.52551847E-16 -9.10021490E-17
  3.47076775E-16 -1.52794706E-16  1.24680911E-16 -2.13828129E-17 -3.01784579E-02
  1.46475488E-16  1.34644578E-15  2.82565307E-16  1.57125004E-15
EOM-EA 2/A - EOM-SF 1/A (beta)             R      9.498053997343564E-02
Dyson Orbital (left)                       R   N=          19
 -1.19441842E-01  2.39285708E-01 -5.86420569E-16 -3.62951878E-15  3.87632448E-01
  2.19077478E-01 -3.67886010E-15 -4.26936013E-15  6.13602774E-01  3.84353115E-02
 -1.19186338E-01  4.97599705E-02 -3.84123005E-17  2.41165827E-16  1.27411408E-18
 -2.51082139E-02  1.24594924E-01 -2.51082139E-02  1.24594924E-01
Dyson Orbital (right)                      R   N=          19
 -1.14342664E-01  2.35069899E-01 -6.73567930E-16 -9.19108358E-15  3.78872316E-01
  1.49881683E-01 -4.66066320E-15 -5.43774531E-15  6.59249283E-01  4.08734636E-02
 -1.25285631E-01  5.68338069E-02 -2.68572775E-17  2.37665510E-16  3.42513961E-16
 -7.72637391E-03  1.66554561E-01 -7.72637391E-03  1.66554561E-01
Number of independent functions            I               19
Alpha MO coefficients                      R   N=         361
  9.94995951E-01  3.02460995E-02 -3.45048480E-16 -1.54347676E-17 -4.63096438E-05
 -7.88087494E-03 -3.94688119E-16 -8.35336376E-17  1.49656776E-03 -3.61146832E-03
 -2.68307791E-03 -3.02471788E-03  4.13485224E-17 -1.08995468E-15 -2.89527618E-17
 -4.06807014E-05  2.17998159E-03 -4.06807014E-05  2.17998159E-03 -2.08445762E-01
  4.19611732E-01 -1.21425223E-15 -9.17392559E-17 -3.96208378E-02  4.66280358E-01
  3.65555641E-16  2.10397955E-16 -2.61506334E-02  3.41939489E-03 -1.09235496E-03
  1.12096248E-02  1.01494832E-17 -6.85608587E-17 -2.05807938E-16  1.47668191E-01
  3.10001606E-02  1.47668191E-01  3.10001606E-02 -8.30471660E-16  9.09897467E-16
  4.67935484E-01  1.59108664E-16  1.93330042E-15  5.02219355E-15  2.31243427E-01
 -9.79005521E-17 -1.26872506E-16 -1.16541064E-16 -5.18158983E-16 -5.04939721E-16
 -3.67513100E-17 -3.50904014E-02  4.84940549E-17 -2.29736843E-01 -1.92416949E-01
  2.29736843E-01  1.92416949E-01 -6.75381316E-02  1.64647702E-01 -9.36422787E-16
  1.95102243E-18  5.47521350E-01  3.12421729E-01 -3.55755035E-15  2.45633116E-16
  3.63647713E-01 -2.53576652E-02  8.93426447E-03 -5.82166965E-03 -3.50746052E-18
 -1.11960512E-16 -1.23179042E-16 -1.37624083E-01 -1.14217208E-01 -1.37624083E-01
 -1.14217208E-01 -2.20228403E-16 -1.60126815E-16 -6.06747314E-17 -6.23495489E-01
  9.50784613E-17  1.00623414E-15 -3.75820495E-16 -5.03501635E-01 -3.82618381E-16
  4.71199009E-17 -7.21920284E-18 -3.61671098E-17  6.49007013E-18  1.43226402E-17
 -3.54383335E-03 -1.65611378E-16 -8.91955679E-16  5.16478683E-17 -1.69749403E-16
 -1.16457768E-01  1.37246242E-01 -3.99470684E-14  1.76956491E-16 -2.07225528E-01
  1.89125100E+00 -1.68380374E-13 -9.57017302E-17 -9.79879218E-01 -1.20052388E-02
  1.89576031E-03 -4.56110532E-03  1.07013962E-16 -2.04441931E-15  1.53443241E-17
 -2.53027286E-02 -1.48335338E+00 -2.53027286E-02 -1.48335338E+00  1.44759246E-14
 -3.52877644E-14 -3.40130936E-01  1.36823074E-16  2.80807585E-14 -2.01626610E-13
 -1.28839633E+00 -7.16839805E-17  1.12286057E-13 -1.32777135E-15 -4.46697577E-15
 -2.87103594E-15  7.07761602E-18 -2.33789509E-02 -4.72745653E-17 -8.53927045E-02
 -1.48546897E+00  8.53927045E-02  1.48546897E+00  2.69753142E-02 -4.84897540E-01
 -1.08024227E-13 -1.96294148E-14 -9.44595265E-01  4.13212597E-01  1.90221340E-13
  2.08023540E-14  1.13342339E+00 -1.33394930E-02 -5.73063375E-02 -4.65383943E-02
 -1.77995237E-16  1.57233784E-14 -2.35469995E-16  1.18267814E-01  5.05543943E-02
  1.18267814E-01  5.05543943E-02 -3.68734763E-16  8.09167430E-15 -8.57118920E-14
 -1.04486281E+00  1.81541974E-14 -6.84823028E-15  1.49242109E-13  1.10772079E+00
 -2.20308086E-14  1.01492048E-15  1.57456003E-15  3.53691103E-16  1.53700725E-16
  1.23000846E-14 -1.00784219E-02  4.72849931E-14  1.51978223E-15 -5.05883054E-14
 -4.83481234E-15 -4.06844328E-15  6.60577874E-14 -7.46971117E-01  1.20014810E-13
  1.39457398E-13 -5.14086540E-14  1.30060253E+00 -1.27338929E-13 -1.69683116E-13
  1.27720340E-15  8.04055525E-15  6.54846558E-15 -4.75446515E-17  1.06638309E-01
  1.06084027E-15  4.25218356E-01  2.83011633E-02 -4.25218356E-01 -2.83011633E-02
 -5.84996027E-02 -1.18417891E+00  2.68908656E-14  3.16081543E-17  6.94924309E-02
  2.64441062E+00 -1.57953543E-14  1.26424323E-16 -9.84340408E-01 -2.52931392E-01
  5.69690542E-02 -1.43801027E-01 -1.71870932E-16  5.93795734E-15 -3.68292841E-16
 -5.79675087E-01 -5.84860434E-01 -5.79675087E-01 -5.84860434E-01 -3.83972663E-15
  5.98713233E-14 -8.54126549E-01 -1.79067488E-16 -4.05602100E-14 -1.08955700E-13
  1.18446740E+00  1.75750719E-16  3.53826158E-14 -7.74928436E-15  1.83412997E-14
  2.32191835E-16  6.72453973E-17 -2.18398177E-01 -1.06376570E-16 -7.00135223E-01
  1.32333332E+00  7.00135223E-01 -1.32333332E+00  2.91993905E-02 -1.23692824E+00
 -5.45390459E-14  1.00327451E-15  5.76517186E-01  2.50756641E+00  9.43634120E-14
 -1.27864136E-15 -8.88049510E-01  3.61295538E-02 -2.06179689E-01 -4.44302240E-02
 -3.04436956E-17 -1.76376910E-14  1.08134069E-16  6.46133035E-01 -1.31313469E+00
  6.46133035E-01 -1.31313469E+00  1.40372558E-03 -1.36814092E-02 -1.74350512E-16
  1.85442899E-15 -1.56800376E-02  6.77171891E-03  2.17268152E-15 -6.54139539E-16
  6.39970929E-03 -6.24112851E-01 -3.61273369E-01  9.89818373E-01  3.14341596E-14
 -8.11393292E-17 -2.95865433E-13 -1.14707613E-02  3.59298719E-03 -1.14707613E-02
  3.59298719E-03 -3.76295335E-16  5.25019293E-15  8.15063146E-17  1.27408594E-02
  5.00358842E-15 -4.09309402E-15  3.90197348E-16 -9.38028695E-03 -1.48768062E-15
  1.83793057E-13  1.07949044E-13 -2.93306726E-13  5.34459175E-14 -8.21343280E-16
 -9.99942932E-01  5.01197497E-15 -1.12019083E-15  3.84065479E-15 -5.85020783E-16
  1.58985850E-16 -7.17411641E-16  1.51512904E-17  6.23544575E-16 -4.10898494E-16
  2.57809096E-16 -2.23023460E-16 -7.50586286E-18 -1.65486078E-16 -1.93386966E-14
 -1.19056512E-14  3.17830841E-14 -1.00000000E+00  6.56050750E-16 -5.40920304E-14
 -1.11410546E-15  5.11089968E-16 -5.28408572E-17 -2.59056767E-16 -4.97927574E-02
 -2.09765278E-01  4.74636679E-16 -4.26957232E-17 -4.22964801E-02  8.92617257E-01
  3.04125726E-15 -1.43674016E-16 -4.67286030E-01  7.88600491E-01 -9.96960466E-01
  1.36756315E-01  4.70252174E-16 -1.11022302E-16 -1.29068021E-15 -5.28042054E-01
 -1.80186629E-01 -5.28042054E-01 -1.80186629E-01  7.32330640E-16 -3.54478568E-15
  1.39673755E-01  1.74411825E-16 -2.61026292E-15 -4.04422832E-15  3.44802568E-01
 -4.06024041E-17  2.33515765E-15  1.90631981E-15  2.68108210E-15  2.62984079E-15
 -8.03090606E-16 -1.11643890E+00  1.02551901E-15  6.61723803E-01 -1.27894548E-01
 -6.61723803E-01  1.27894548E-01  4.55133815E-01 -3.12533000E+00 -1.62548666E-15
  8.49026367E-16 -7.86080484E-02 -1.46154492E+00 -3.07230599E-15 -1.20253058E-15
  2.87203147E-01  1.81318164E+00  1.79879291E+00  1.80638344E+00  1.97954814E-16
  2.94035629E-15 -3.77200188E-16 -1.54714296E-01  4.56878759E-01 -1.54714296E-01
  4.56878759E-01
Beta MO coefficients                       R   N=         361
  9.96350625E-01  2.29048385E-02 -4.52789459E-16 -1.03188633E-16 -6.45281842E-04
 -8.09806929E-03 -4.67376139E-16  7.13081970E-17  1.33180908E-03 -7.35021980E-04
 -2.11311962E-03 -1.70235136E-03 -1.20524546E-16 -7.27873590E-16 -8.97720642E-17
 -1.88892079E-04  2.14515925E-03 -1.88892079E-04  2.14515925E-03  1.70909065E-01
 -3.24218887E-01  1.01521617E-18  1.10894796E-17  1.80958759E-01 -3.01809319E-01
 -1.22314772E-15 -7.42037719E-17  5.43967097E-02 -3.49465516E-02  2.62201094E-02
 -9.29135597E-03 -5.68424455E-18 -8.64293482E-17  1.05951997E-16 -2.05957428E-01
 -1.14117211E-01 -2.05957428E-01 -1.14117211E-01  8.83342586E-18  1.67794027E-16
  4.06594306E-01  5.13462562E-18 -1.24585886E-16  1.94674387E-16  1.74568877E-01
 -3.01788900E-17 -9.65939227E-16  3.14184322E-16 -3.24301626E-16  8.58939860E-17
  2.54773727E-17 -4.80655558E-02  3.54718642E-17 -2.55043252E-01 -2.66466946E-01
  2.55043252E-01  2.66466946E-01 -1.23826498E-01  1.32024304E-01 -2.97044829E-15
 -3.25427094E-16  2.77232291E-01  7.95577090E-01 -3.68112420E-15 -8.67974564E-16
  4.30948890E-01  4.35704811E-03 -8.53704803E-03 -3.36921699E-02  6.26450248E-17
  4.90148862E-16 -5.40474816E-17 -9.12836544E-02 -2.73022318E-01 -9.12836544E-02
 -2.73022318E-01  3.39529587E-16 -2.61316756E-16  1.69361133E-16 -3.58813666E-01
 -9.10091049E-17 -1.59664442E-15  3.74973375E-16 -7.50817686E-01 -1.86631115E-16
 -1.73703278E-17  6.62156757E-17  4.49048197E-17 -2.35204922E-17 -8.06611889E-18
  2.31929718E-02 -7.42378372E-17  1.55963182E-15 -2.31623560E-18  3.97542155E-16
  1.10409051E-01 -1.10768112E-01  2.44371171E-14  2.94639693E-16  2.25780696E-01
 -1.89119448E+00  1.04052758E-13  4.48663169E-16  1.06895580E+00 -1.25595974E-03
  2.35646641E-02 -1.62120705E-02 -7.37445710E-17 -1.35855146E-15  8.56522088E-18
 -1.59621556E-02  1.49595469E+00 -1.59621556E-02  1.49595469E+00 -8.97985565E-15
  1.42134028E-14  3.41957258E-01  3.44149416E-16 -1.94413123E-14  1.35691718E-13
  1.35102621E+00  3.14312501E-16 -7.40623532E-14  2.44305070E-15  5.89462120E-17
  2.82618851E-15 -5.15997889E-17 -1.18090081E-02 -9.59444251E-17  3.21714551E-02
  1.53407711E+00 -3.21714551E-02 -1.53407711E+00 -1.16891603E-16  1.19669362E-14
  7.18537119E-01  5.76669191E-16  6.24267634E-16 -2.08344747E-14 -1.29438462E+00
 -2.70654781E-16  8.11812601E-15  2.14666385E-15  3.58314335E-16  8.85266936E-16
  1.27701551E-16 -1.02940148E-01  3.72337674E-17 -4.50921333E-01 -1.95554123E-02
  4.50921333E-01  1.95554123E-02 -6.43644810E-02  2.11455549E-01  2.93076711E-15
  1.05807189E-14  1.00860548E+00  3.25523567E-01  2.51203622E-15 -8.49618561E-15
 -1.24540270E+00 -5.69813132E-03  7.20521523E-02  1.34469260E-02  2.38720300E-17
 -1.52880918E-16 -1.08330476E-16 -2.81390990E-01 -1.95753506E-01 -2.81390990E-01
 -1.95753506E-01 -5.05348293E-16 -6.34603488E-16  5.75961611E-16 -1.16241356E+00
  9.65266323E-15  6.86085314E-15 -7.10469599E-16  9.57555985E-01 -1.25344521E-14
  6.12533002E-16  1.19189404E-15 -7.17581059E-16 -3.52024461E-16 -1.41618987E-16
  1.55068778E-02 -2.30503925E-15 -3.35168580E-15 -2.22678278E-15 -3.16858705E-15
 -5.19567704E-02 -1.23195550E+00  8.68769019E-15  9.17415329E-16 -2.02607480E-01
  2.65568564E+00 -2.70631041E-15 -7.28316867E-16 -7.36529312E-01 -2.67810297E-01
 -6.73938242E-03 -1.26088938E-01  3.36461188E-16 -8.90824999E-16 -4.97607997E-16
 -5.44918608E-01 -5.56757042E-01 -5.44918608E-01 -5.56757042E-01  5.47772094E-16
  1.54984261E-15  9.11441439E-01  2.39526780E-16 -3.17204238E-15 -1.01406469E-14
 -1.12995391E+00 -1.73292816E-16  9.33788753E-15 -2.20645825E-15  1.10395471E-16
 -2.64747957E-16 -2.28851631E-16  1.81050713E-01 -3.19180298E-17  7.02307382E-01
 -1.25463040E+00 -7.02307382E-01  1.25463040E+00 -3.59643518E-02  1.25074750E+00
 -7.14637175E-15 -1.48889700E-15 -5.93685430E-01 -2.44977925E+00 -3.88149073E-15
  1.56767577E-15  8.53387056E-01 -1.37581771E-02  1.65991339E-01  8.39877541E-02
  1.95930093E-16  2.19497827E-15 -1.29683600E-16 -6.49036603E-01  1.27005568E+00
 -6.49036603E-01  1.27005568E+00 -4.38128970E-03 -3.37735860E-02 -1.93866100E-16
  2.60143485E-15 -3.78425766E-02  1.10743413E-01 -2.45148266E-15 -2.10942520E-15
 -5.99283036E-02  6.94769191E-01  2.61895160E-01 -9.71840731E-01 -2.50919126E-14
  1.72708951E-15  1.58095121E-14 -6.91998100E-02 -2.02991870E-02 -6.91998100E-02
 -2.02991870E-02  4.50447764E-17  5.06710421E-16 -2.04446106E-17  5.79924315E-16
  9.71719620E-16 -2.03491810E-15 -8.13754267E-16  1.14811617E-17  8.03306596E-16
 -1.75359970E-14 -6.50020493E-15  2.47050149E-14 -1.00000000E+00  6.64576080E-16
  2.38141479E-15  6.13722038E-16  2.50886020E-16  2.26609224E-15  7.91938664E-17
 -1.82668011E-16  4.62243807E-16  7.48849431E-17 -2.63576203E-02 -1.00650156E-16
  5.84201871E-16 -2.36734931E-16 -2.56598861E-03 -8.10342355E-16  1.06946855E-14
  4.88539878E-15 -1.62065851E-14 -2.39891789E-15 -1.28232622E-16 -9.99610736E-01
  7.56670087E-17 -1.09690696E-15 -1.37335207E-16 -7.82477336E-17  3.97528145E-02
  2.39544620E-01 -9.63533826E-16  1.63554996E-16  3.53875646E-02 -8.59056263E-01
  1.11439899E-15  9.27101224E-17  4.42148479E-01 -7.28043614E-01  1.03745661E+00
 -2.38381861E-01 -1.88067139E-16 -3.40005801E-15  9.42537008E-16  4.84555932E-01
  1.82453678E-01  4.84555932E-01  1.82453678E-01  9.52899653E-16 -4.38438506E-15
  1.11286361E-01 -2.07518096E-16 -3.34317692E-15 -7.34011727E-15  3.44795434E-01
  3.43495482E-16  3.58987375E-15  6.37549633E-15  2.22099336E-15  3.39311912E-15
 -9.21023932E-16 -1.12314623E+00  1.61036206E-16  6.37417864E-01 -1.14605100E-01
 -6.37417864E-01  1.14605100E-01 -4.55014392E-01  3.14349254E+00  1.68075112E-15
 -8.04848285E-16  8.89085436E-02  1.43714222E+00  2.94334317E-15  1.21360207E-15
 -2.89783982E-01 -1.81090212E+00 -1.79728140E+00 -1.80569965E+00 -9.34286961E-17
 -3.55097896E-15  1.98845191E-16  1.54358823E-01 -4.51682928E-01  1.54358823E-01
 -4.51682928E-01
Alpha Orbital Energies                     R   N=          19
 -1.12795195E+01 -9.45135599E-01 -5.57868536E-01 -5.02328880E-01 -4.16840933E-01
  2.62083753E-01  2.95388518E-01  7.16677176E-01  7.22083693E-01  7.23038389E-01
  9.48068565E-01  1.10445328E+00  1.16729024E+00  1.89472308E+00  1.89663367E+00
  1.91299278E+00  2.25423271E+00  2.51245244E+00  4.36673647E+00
Beta Orbital Energies                      R   N=          19
 -1.12281922E+01 -7.81654584E-01 -5.15692872E-01  1.06719115E-01  1.75472192E-01
  2.93519786E-01  3.46535844E-01  7.51374421E-01  8.69664502E-01  8.95682968E-01
  1.01155891E+00  1.15392656E+00  1.20672647E+00  2.02511306E+00  2.03963413E+00
  2.07731640E+00  2.36986574E+00  2.58568852E+00  4.43889959E+00
Total SCF Density                          R   N=         190
  2.05995245E+00 -1.01082235E-01  3.09740217E-01 -8.62950951E-16 -1.90833528E-16
  3.84282546E-01  4.00280082E-17  5.52389309E-17  1.14370720E-16  3.88746624E-01
  1.51871408E-03  1.48363353E-02  3.89894045E-16 -5.25039401E-17  3.34095930E-01
 -1.85786448E-01  3.44524660E-01  1.57655487E-15 -6.71938760E-16  9.79736990E-02
  4.06241261E-01 -1.09385791E-15  1.81273013E-16  1.79185716E-01  2.72011562E-16
 -1.75802362E-15  6.30381433E-16  8.39478152E-02  2.56894353E-17  2.32517492E-16
 -2.75318805E-17  3.13930998E-01  6.48111031E-17 -3.09318731E-16  1.61319080E-16
  2.53513897E-01 -6.99617992E-03  3.13399771E-02 -7.61952270E-16  2.42112063E-16
  2.09983629E-01  8.49779071E-02 -1.56896426E-15  2.72404375E-16  1.35886530E-01
 -9.29856746E-03  8.46400061E-03  9.43488083E-17 -2.99981627E-17 -2.03425854E-02
  4.25371981E-03  1.63872329E-16 -2.63917638E-17 -1.12180374E-02  1.88954787E-03
 -6.69512098E-04 -7.61796686E-03 -3.79454814E-16  5.16901316E-18  9.68122683E-03
 -5.59330150E-03 -2.38641708E-16  3.72741589E-18  4.69694862E-03 -1.13534665E-03
  7.80172642E-04 -8.23711193E-03  6.62712064E-03 -2.07709927E-16  2.16296218E-17
 -5.31173682E-03  6.24985277E-03 -6.36067908E-17  1.99594140E-17 -2.92238874E-03
  5.22829873E-04 -2.96164770E-04  2.57923740E-04 -8.17933127E-17  4.01432263E-18