tin.anu.edu.au 150.203.123
Q-Chem Developer Version! Running on 150.203.123.*
                  Welcome to Q-Chem
     A Quantum Leap Into The Future Of Chemistry


 Q-Chem 5.0, Q-Chem, Inc., Pleasanton, CA (2017)

 Yihan Shao,  Zhengting Gan,  E. Epifanovsky,  A. T. B. Gilbert,  M. Wormit,  
 J. Kussmann,  A. W. Lange,  A. Behn,  Jia Deng,  Xintian Feng,  D. Ghosh,  
 M. Goldey,  P. R. Horn,  L. D. Jacobson,  I. Kaliman,  T. Kus,  A. Landau,  
 Jie Liu,  E. I. Proynov,  R. M. Richard,  R. P. Steele,  E. J. Sundstrom,  
 H. L. Woodcock III,  P. M. Zimmerman,  D. Zuev,  B. Albrecht,  E. Alguire,  
 S. A. Baeppler,  D. Barton,  Z. Benda,  Y. A. Bernard,  E. J. Berquist,  
 K. B. Bravaya,  H. Burton,  D. Casanova,  Chun-Min Chang,  Yunqing Chen,  
 A. Chien,  K. D. Closser,  M. P. Coons,  S. Dasgupta,  A. L. Dempwolff,  
 M. Diedenhofen,  Hainam Do,  R. G. Edgar,  Po-Tung Fang,  S. Fatehi,  
 Qingguo Feng,  J. Fosso-Tande,  Qinghui Ge,  A. Ghysels,  G. Gidofalvi,  
 J. Gomes,  J. Gonthier,  A. Gunina,  M. W. D. Hanson-Heine,  
 P. H. P. Harbach,  A. W. Hauser,  J. E. Herr,  E. G. Hohenstein,  
 Z. C. Holden,  Kerwin Hui,  T.-C. Jagau,  Hyunjun Ji,  B. Kaduk,  
 K. Khistyaev,  Jaehoon Kim,  P. Klunzinger,  K. Koh,  D. Kosenkov,  
 L. Koulias,  T. Kowalczyk,  C. M. Krauter,  A. Kunitsa,  Ka Un Lao,  
 A. Laurent,  K. V. Lawler,  Joonho Lee,  D. Lefrancois,  S. Lehtola,  
 D. S. Levine,  Yi-Pei Li,  You-Sheng Lin,  Fenglai Liu,  E. Livshits,  
 A. Luenser,  P. Manohar,  E. Mansoor,  S. F. Manzer,  Shan-Ping Mao,  
 Yuezhi Mao,  N. Mardirossian,  A. V. Marenich,  T. Markovich,  
 L. A. Martinez-Martinez,  S. A. Maurer,  N. J. Mayhall,  S. C. McKenzie,  
 J.-M. Mewes,  A. F. Morrison,  J. W. Mullinax,  K. Nanda,  
 T. S. Nguyen-Beck,  R. Olivares-Amaya,  J. A. Parkhill,  T. M. Perrine,  
 F. Plasser,  S. Prager,  A. Prociuk,  E. Ramos,  D. R. Rehn,  F. Rob,  
 M. Schneider,  N. Sergueev,  S. M. Sharada,  S. Sharma,  D. W. Small,  
 T. Stauch,  T. Stein,  Yu-Chuan Su,  A. J. W. Thom,  A. Tkatchenko,  
 T. Tsuchimochi,  L. Vogt,  O. Vydrov,  M. A. Watson,  J. Wenzel,  
 M. de Wergifosse,  T. A. Wesolowski,  A. White,  J. Witte,  A. Yamada,  
 Jun Yang,  K. Yao,  S. Yeganeh,  S. R. Yost,  Zhi-Qiang You,  A. Zech,  
 Igor Ying Zhang,  Xing Zhang,  Yan Zhao,  Ying Zhu,  B. R. Brooks,  
 G. K. L. Chan,  C. J. Cramer,  M. S. Gordon,  W. J. Hehre,  A. Klamt,  
 M. W. Schmidt,  C. D. Sherrill,  D. G. Truhlar,  A. Aspuru-Guzik,  R. Baer,  
 A. T. Bell,  N. A. Besley,  Jeng-Da Chai,  R. A. DiStasio Jr.,  A. Dreuw,  
 B. D. Dunietz,  T. R. Furlani,  Chao-Ping Hsu,  Yousung Jung,  Jing Kong,  
 D. S. Lambrecht,  WanZhen Liang,  C. Ochsenfeld,  V. A. Rassolov,  
 L. V. Slipchenko,  J. E. Subotnik,  T. Van Voorhis,  J. M. Herbert,  
 A. I. Krylov,  P. M. W. Gill,  M. Head-Gordon

 Contributors to earlier versions of Q-Chem not listed above: 
 R. D. Adamson,  B. Austin,  J. Baker,  G. J. O. Beran,  K. Brandhorst,  
 S. T. Brown,  E. F. C. Byrd,  A. K. Chakraborty,  C.-L. Cheng,  
 Siu Hung Chien,  D. M. Chipman,  D. L. Crittenden,  H. Dachsel,  
 R. J. Doerksen,  A. D. Dutoi,  L. Fusti-Molnar,  W. A. Goddard III,  
 A. Golubeva-Zadorozhnaya,  S. R. Gwaltney,  G. Hawkins,  A. Heyden,  
 S. Hirata,  G. Kedziora,  F. J. Keil,  C. Kelley,  Jihan Kim,  R. A. King,  
 R. Z. Khaliullin,  P. P. Korambath,  W. Kurlancheek,  A. M. Lee,  M. S. Lee,  
 S. V. Levchenko,  Ching Yeh Lin,  D. Liotard,  R. C. Lochan,  I. Lotan,  
 P. E. Maslen,  N. Nair,  D. P. O'Neill,  D. Neuhauser,  E. Neuscamman,  
 C. M. Oana,  R. Olson,  B. Peters,  R. Peverati,  P. A. Pieniazek,  
 Y. M. Rhee,  J. Ritchie,  M. A. Rohrdanz,  E. Rosta,  N. J. Russ,  
 H. F. Schaefer III,  N. E. Schultz,  N. Shenvi,  A. C. Simmonett,  A. Sodt,  
 D. Stuck,  K. S. Thanthiriwatte,  V. Vanovschi,  Tao Wang,  A. Warshel,  
 C. F. Williams,  Q. Wu,  X. Xu,  W. Zhang

 Please cite Q-Chem as follows:
 Y. Shao et al., Mol. Phys. 113, 184-215 (2015)
 DOI: 10.1080/00268976.2014.952696

 Q-Chem 5.0.2 for Mac (Intel) OS X

 Parts of Q-Chem use Armadillo 5.200.1 (Boston Tea Smuggler).
 http://arma.sourceforge.net/

 Q-Chem begins on Tue Jan 16 17:02:34 2018  

tin.anu.edu.au
Host: 0

     Scratch files written to /Users/agilbert/Development/QChem/scratch/local/qchem61289//
Core orbitals will be frozen

Checking the input file for inconsistencies... 	...done.

--------------------------------------------------------------
User input:
--------------------------------------------------------------
\begin{qinput}
{Dyson orbitals for ionization of CH2
from high-spin triplet reference and from the lowest SF state
$end
$molecule
   0 3
   C
   H  1 rCH
   H  1 rCH 2 aHCH

   rCH    = 1.1167
   aHCH   = 102.07
$end

$rem
   CORRELATION           CCSD
   BASIS                 6-31G*
   PURECART              2222    6d, will be required for ezDyson
   SCF_GUESS             core
   CCMAN2                true    new Dyson code
   CC_SYMMETRY           false
   SF_STATES             [1]
   EOM_IP_ALPHA          [2]     one should be careful to request
   EOM_EA_BETA           [2]     meaningful spin for EA/IP state(s)
   CC_TRANS_PROP         true    necessary for Dyson orbitals job
   CC_DO_DYSON           true
   PRINT_GENERAL_BASIS   true    will be required for ezDyson
$end
--------------------------------------------------------------
 ----------------------------------------------------------------
             Standard Nuclear Orientation (Angstroms)
    I     Atom           X                Y                Z
 ----------------------------------------------------------------
    1      C       0.0000000000     0.0000000000     0.1755579542
    2      H      -0.8682680261    -0.0000000000    -0.5266738627
    3      H       0.8682680261    -0.0000000000    -0.5266738627
 ----------------------------------------------------------------
 Molecular Point Group                 C2v   NOp =  4
 Largest Abelian Subgroup              C2v   NOp =  4
 Nuclear Repulsion Energy =     5.9912422132 hartrees
 There are        5 alpha and        3 beta electrons

 Q-Chem warning in module /Users/agilbert/Development/QChem/trunk/forms1/BasisType.C, line 1718:

 You are not using the predefined 5D/6D in this basis set.

 Requested basis set is 6-31G(d)
Basis set in general basis input format:
-----------------------------------------------------------------------
$basis
C    0
S    6    1.000000
   3.04752490E+03    1.83470000E-03 
   4.57369510E+02    1.40373000E-02 
   1.03948690E+02    6.88426000E-02 
   2.92101550E+01    2.32184400E-01 
   9.28666300E+00    4.67941300E-01 
   3.16392700E+00    3.62312000E-01 
SP   3    1.000000
   7.86827240E+00   -1.19332400E-01   6.89991000E-02 
   1.88128850E+00   -1.60854200E-01   3.16424000E-01 
   5.44249300E-01    1.14345640E+00   7.44308300E-01 
SP   1    1.000000
   1.68714400E-01    1.00000000E+00   1.00000000E+00 
D    1    1.000000
   8.00000000E-01    1.00000000E+00 
****
H    0
S    3    1.000000
   1.87311370E+01    3.34946000E-02 
   2.82539370E+00    2.34726950E-01 
   6.40121700E-01    8.13757330E-01 
S    1    1.000000
   1.61277800E-01    1.00000000E+00 
****
H    0
S    3    1.000000
   1.87311370E+01    3.34946000E-02 
   2.82539370E+00    2.34726950E-01 
   6.40121700E-01    8.13757330E-01 
S    1    1.000000
   1.61277800E-01    1.00000000E+00 
****
$end
-----------------------------------------------------------------------
 There are 8 shells and 19 basis functions
 Total memory of 2000MB is distributed as follows: 
   QALLOC including MEM_STATIC uses 192MB
   MEM_STATIC is set to 192MB
   CCMAN JOB total memory use is  1808MB
 Warning: actual memory use might exceed 2000MB

 Total QAlloc Memory Limit    192 MB
 Mega-Array Size       188 MB
 MEM_STATIC part       192 MB

                       Distance Matrix (Angstroms)
             C (  1)   H (  2)
   H (  2)  1.116700
   H (  3)  1.116700  1.736536

 A cutoff of  1.0D-14 yielded     36 shell pairs
 There are       217 function pairs
 Smallest overlap matrix eigenvalue = 3.08E-02

 Scale SEOQF with 1.000000e+00/1.000000e+00/1.000000e+00

 Standard Electronic Orientation quadrupole field applied
 Nucleus-field energy     =    -0.0000000003 hartrees
 Guess MOs from core Hamiltonian diagonalization

 ==================================================
    GEN_SCFMAN: A general SCF calculation manager  
                                                   
    Authors:                                       
        -- Eric Jon Sundstrom 2008-2014            
        -- Paul Horn 2010-2015                     
        -- Yuezhi Mao 2012-                        
        -- Dmitri Zuev 2014                        
        -- Alec White 2015-                        
        -- David Stuck 2015                        
        -- Shaama M.S. 2015                        
        -- Shane Yost 2015-                         
        -- Joonho Lee 2016-                        
        -- David Small 2016-                       
        -- Daniel Levine 2016-                     
        -- Susi Lehtola 2017-                      
        -- Hugh Burton 2017-                       
 ==================================================
 Hartree-Fock
 A unrestricted SCF calculation will be
 performed using DIIS
 SCF converges when DIIS error is below 1.0e-08
 ---------------------------------------
  Cycle       Energy         DIIS error
 ---------------------------------------
    1     -34.8288845040      1.35e-01  
    2     -38.1950494695      4.98e-02  
    3     -38.8915174866      6.95e-03  
    4     -38.9024572294      1.37e-03  
    5     -38.9032365326      3.21e-04  
    6     -38.9033087160      1.34e-04  
    7     -38.9033226925      5.33e-05  
    8     -38.9033251309      1.14e-05  
    9     -38.9033252268      2.44e-06  
   10     -38.9033252299      4.62e-07  
   11     -38.9033252301      9.52e-08  
   12     -38.9033252301      2.20e-08  
   13     -38.9033252301      3.91e-09  Convergence criterion met
 ---------------------------------------
 SCF time:   CPU 0.83s  wall 0.00s 
 Total energy in the final basis set =      -38.9033252301
<S^2> =          2.013007771
Wall  1 = 0
Clock 1 = 0.830097973
 ==================================================
                  Done GEN_SCFMAN                  
 ==================================================



 ------------------------------------------------------------------------------

   CCMAN2: suite of methods based on coupled cluster
           and equation of motion theories.

   Components:
   * libvmm-1.3-20171107
     by Evgeny Epifanovsky, Ilya Kaliman.
   * libtensor-2.5-trunk
     by Evgeny Epifanovsky, Michael Wormit, Dmitry Zuev, Sam Manzer, 
        Ilya Kaliman.
   * libcc-2.5-trunk
     by Evgeny Epifanovsky, Arik Landau, Tomasz Kus, Kirill Khistyaev, 
        Dmitry Zuev, Prashant Manohar, Xintian Feng, Anna Krylov, 
        Matthew Goldey, Alec White, Thomas Jagau, Kaushik Nanda, 
        Anastasia Gunina, Alexander Kunitsa, Joonho Lee.

   CCMAN original authors:
   Anna I. Krylov, C. David Sherrill, Steven R. Gwaltney,
   Edward F. C. Byrd (2000)
   Sergey V. Levchenko, Lyudmila V. Slipchenko, Tao Wang,
   Ana-Maria C. Cristian (2003)
   Piotr A. Pieniazek, C. Melania Oana, Evgeny Epifanovsky (2007)
   Prashant Manohar (2009)

 ------------------------------------------------------------------------------


 Calculation will run on 1 core with 1808MB of RAM.


 Occupation and symmetry of molecular orbitals

 Point group: C1 (1 irreducible representation).

                           A     All 
 -------------------------------------
 All molecular orbitals:
  - Alpha                  19    19  
  - Beta                   19    19  
 -------------------------------------
 Alpha orbitals:
  - Frozen occupied        1     1   
  - Active occupied        4     4   
  - Active virtual         14    14  
  - Frozen virtual         0     0   
 -------------------------------------
 Beta orbitals:
  - Frozen occupied        1     1   
  - Active occupied        2     2   
  - Active virtual         16    16  
  - Frozen virtual         0     0   
 -------------------------------------

 Import integrals:   CPU 0.00 s  wall 0.00 s

 Import integrals:   CPU 0.06 s  wall 0.06 s

 MP2 amplitudes:   CPU 0.00 s  wall 0.00 s

           CCSD T amplitudes will be solved using DIIS.

           Start     Size      MaxIter   EConv     TConv     
           3         7         100       1.00e-06  1.00e-04  
 ------------------------------------------------------------------------------
           Energy (a.u.)   Ediff      Tdiff       Comment
 ------------------------------------------------------------------------------
           -38.98590263                           
     1     -38.99897126   1.31e-02   2.63e-01     
     2     -39.00224072   3.27e-03   4.27e-02     
     3     -39.00331582   1.08e-03   1.31e-02     
     4     -39.00413911   8.23e-04   9.87e-03     Switched to DIIS steps.
     5     -39.00425003   1.11e-04   3.38e-03     
     6     -39.00426260   1.26e-05   9.85e-04     
     7     -39.00426107   1.52e-06   2.23e-04     
     8     -39.00426110   2.40e-08   6.92e-05     
 ------------------------------------------------------------------------------
           -39.00426110                           CCSD T converged.

 SCF energy                 = -38.90332523
 MP2 energy                 = -38.98590263
 CCSD correlation energy     =  -0.10093587
 CCSD total energy           = -39.00426110

 CCSD  T1^2 = 0.0013  T2^2 = 0.0452  Leading amplitudes:

 Amplitude    Orbitals with energies
 -0.0232       2 (A) B                   ->    4 (A) B                    
              -0.7817                          0.1067                     
  0.0140       3 (A) B                   ->    7 (A) B                    
              -0.5157                          0.3465                     
  0.0129       3 (A) B                   ->    12 (A) B                   
              -0.5157                          1.1539                     
 -0.0091       2 (A) B                   ->    13 (A) B                   
              -0.7817                          1.2067                     

 Amplitude    Orbitals with energies
  0.0484       3 (A) A       3 (A) B     ->    7 (A) A       7 (A) B      
              -0.5579       -0.5157            0.2954        0.3465       
 -0.0484       3 (A) A       3 (A) B     ->    7 (A) B       7 (A) A      
              -0.5579       -0.5157            0.3465        0.2954       
 -0.0484       3 (A) B       3 (A) A     ->    7 (A) A       7 (A) B      
              -0.5157       -0.5579            0.2954        0.3465       
  0.0484       3 (A) B       3 (A) A     ->    7 (A) B       7 (A) A      
              -0.5157       -0.5579            0.3465        0.2954       

 Computing CCSD intemediates for later calculations
 Finished.

           CCSD Lambda amplitudes will be solved using DIIS.
           Start     Size      MaxIter   EConv     LConv     
           3         7         100       1.00e-06  1.00e-04  
 ------------------------------------------------------------------------------
            Enorm      Ldiff       Comment
 ------------------------------------------------------------------------------
     1     1.08e-02   7.53e-03     
     2     2.39e-03   1.70e-03     
     3     8.66e-04   4.73e-04     
     4     2.79e-04   2.63e-04     Switched to DIIS steps.
     5     9.37e-05   9.77e-05     
     6     2.95e-05   2.98e-05     
     7     9.51e-06   7.88e-06     
     8     2.90e-06   1.94e-06     
     9     8.79e-07   4.27e-07     
 ------------------------------------------------------------------------------
                                   CCSD Lambda converged.

 CCSD calculation:   CPU 0.56 s  wall 0.54 s

        Solving for EOMEE-CCSD A transitions.

       EOMSF-CCSD/MP2 right amplitudes will be solved using Davidson.
      Amplitudes will be solved using standard  algorithm
      Roots     MaxVec    MaxIter   Precond   Conv      Thresh    Shift    
      1         60        60        1         1.00e-05  1.00e-05  0.00e+00  
 ------------------------------------------------------------------------------
      Iter ConvRoots NVecs ResNorm Current eigenvalues (eV)
 ------------------------------------------------------------------------------
      0    0      2     1.33e-01   2.6164   
      1    0      3     4.84e-02   1.0918   
      2    0      4     4.44e-03   0.3288   
      3    0      5     6.90e-04   0.2341   
      4    0      6     1.56e-04   0.2185   
      5    0      7     2.53e-05   0.2147   
      6    1      8     3.57e-06   0.2144*  

     Davidson procedure converged

 EOMSF transition 1/A
 Total energy = -38.99638361 a.u.  Excitation energy = 0.2144 eV.
 R1^2 = 0.9744  R2^2 = 0.0256  Res^2 = 3.57e-06
 Conv-d = yes

 Amplitude    Transitions between orbitals
  0.9483       5 (A) A                   ->    4 (A) B                    
  0.1685       4 (A) A                   ->    5 (A) B                    
  0.1658       5 (A) A                   ->    9 (A) B                    
  0.0775       2 (A) A                   ->    5 (A) B                    

              Summary of significant orbitals:

               Number  Type             Irrep      Energy
               2       Occ  Alpha       2 (A)     -0.9451
               4       Occ  Alpha       4 (A)     -0.5023
               5       Occ  Alpha       5 (A)     -0.4168
               4       Vir  Beta        4 (A)      0.1067
               5       Vir  Beta        5 (A)      0.1755
               9       Vir  Beta        9 (A)      0.8697


      EOM-CCSD/MP2 left amplitudes will be solved using Davidson.
      Amplitudes will be solved using MOM  algorithm
      Roots     MaxVec    MaxIter   Precond   Conv      Thresh    Shift    
      1         60        60        1         1.00e-05  1.00e-05  0.00e+00  
 ------------------------------------------------------------------------------
      Iter ConvRoots NVecs ResNorm Current eigenvalues (eV)
 ------------------------------------------------------------------------------
      0    0      1     7.31e-04   0.2144   
      1    0      2     1.76e-04   0.2144   
      2    0      3     1.34e-05   0.2145   
      3    1      4     2.12e-06   0.2145*  

     Davidson procedure converged

 EOMSF-CCSD calculation:   CPU 0.30 s  wall 0.29 s

        Solving for EOMIP-CCSD A transitions.

      EOMIP-CCSD/MP2 right amplitudes will be solved using Davidson.
      Amplitudes will be solved using standard  algorithm
      Roots     MaxVec    MaxIter   Precond   Conv      Thresh    Shift    
      2         60        60        1         1.00e-05  1.00e-05  0.00e+00  
 ------------------------------------------------------------------------------
      Iter ConvRoots NVecs ResNorm Current eigenvalues (eV)
 ------------------------------------------------------------------------------
      0    0      2     6.87e-02   11.9561   14.3076   
      1    0      4     1.65e-02   10.4762   12.7988   
      2    0      6     5.55e-04   10.1995   12.5158   
      3    0      8     7.94e-05   10.1916   12.4858   
      4    2      10    4.09e-06   10.1911*  12.4826*  

     Davidson procedure converged

 EOMIP transition 1/A
 Total energy = -38.62974543 a.u.  Excitation energy = 10.1911 eV.
 R1^2 = 0.9497  R2^2 = 0.0503  Res^2 = 7.82e-07
 Conv-d = yes

 Amplitude    Transitions between orbitals
 -0.9745       5 (A) A                   ->    infty        

              Summary of significant orbitals:

               Number  Type             Irrep      Energy
               5       Occ  Alpha       5 (A)     -0.4168


 EOMIP transition 2/A
 Total energy = -38.54553358 a.u.  Excitation energy = 12.4826 eV.
 R1^2 = 0.9382  R2^2 = 0.0618  Res^2 = 7.41e-06
 Conv-d = yes

 Amplitude    Transitions between orbitals
  0.9673       4 (A) A                   ->    infty        
  0.0497       2 (A) A                   ->    infty        

              Summary of significant orbitals:

               Number  Type             Irrep      Energy
               2       Occ  Alpha       2 (A)     -0.9451
               4       Occ  Alpha       4 (A)     -0.5023


      EOMIP-CCSD/MP2 left amplitudes will be solved using Davidson.
      Amplitudes will be solved using MOM  algorithm
      Roots     MaxVec    MaxIter   Precond   Conv      Thresh    Shift    
      2         60        60        1         1.00e-05  1.00e-05  0.00e+00  
 ------------------------------------------------------------------------------
      Iter ConvRoots NVecs ResNorm Current eigenvalues (eV)
 ------------------------------------------------------------------------------
      0    0      2     1.29e-03   10.1911   12.4826   
      1    0      4     3.09e-04   10.1910   12.4825   
      2    0      6     1.20e-05   10.1910   12.4824   
      3    2      8     1.18e-06   10.1910*  12.4824*  

     Davidson procedure converged

 EOMIP-CCSD calculation:   CPU 0.31 s  wall 0.30 s

        Solving for EOMEA-CCSD/MP2 A transitions.

      EOMEA-CCSD/MP2 right amplitudes will be solved using Davidson.
      Amplitudes will be solved using standard  algorithm
      Roots     MaxVec    MaxIter   Precond   Conv      Thresh    Shift    
      2         60        60        1         1.00e-05  1.00e-05  0.00e+00  
 ------------------------------------------------------------------------------
      Iter ConvRoots NVecs ResNorm Current eigenvalues (eV)
 ------------------------------------------------------------------------------
      0    0      2     1.32e-01   3.1738   4.9927   
      1    0      4     4.25e-02   1.6254   3.5915   
      2    0      6     2.03e-03   0.7954   2.8328   
      3    0      8     1.16e-04   0.7479   2.8008   
      4    0      10    2.12e-05   0.7480   2.8003   
      5    1      12    6.38e-06   0.7460   2.7989*  
      6    2      13    1.63e-06   0.7457*  2.7989*  

     Davidson procedure converged

 EOMEA transition 1/A
 Total energy = -38.97685547 a.u.  Excitation energy = 0.7457 eV.
 R1^2 = 0.9388  R2^2 = 0.0612  Res^2 = 1.22e-06
 Conv-d = yes

 Amplitude    Transitions between orbitals
  0.9644       infty       ->    4 (A) B                    
  0.0778       infty       ->    9 (A) B                    
  0.0444       infty       ->    6 (A) B                    
 -0.0265       infty       ->    11 (A) B                   

              Summary of significant orbitals:

               Number  Type             Irrep      Energy
               4       Vir  Beta        4 (A)      0.1067
               6       Vir  Beta        6 (A)      0.2935
               9       Vir  Beta        9 (A)      0.8697
               11      Vir  Beta       11 (A)      1.0116


 EOMEA transition 2/A
 Total energy = -38.90140308 a.u.  Excitation energy = 2.7989 eV.
 R1^2 = 0.9456  R2^2 = 0.0544  Res^2 = 2.03e-06
 Conv-d = yes

 Amplitude    Transitions between orbitals
 -0.9678       infty       ->    5 (A) B                    
 -0.0951       infty       ->    10 (A) B                   
 -0.0026       infty       ->    16 (A) B                   

              Summary of significant orbitals:

               Number  Type             Irrep      Energy
               5       Vir  Beta        5 (A)      0.1755
               10      Vir  Beta       10 (A)      0.8957
               16      Vir  Beta       16 (A)      2.0773


      EOMEA-CCSD/MP2 left amplitudes will be solved using Davidson.
      Amplitudes will be solved using MOM  algorithm
      Roots     MaxVec    MaxIter   Precond   Conv      Thresh    Shift    
      2         60        60        1         1.00e-05  1.00e-05  0.00e+00  
 ------------------------------------------------------------------------------
      Iter ConvRoots NVecs ResNorm Current eigenvalues (eV)
 ------------------------------------------------------------------------------
      0    0      2     3.30e-03   0.7457   2.7989   
      1    0      4     9.38e-04   0.7459   2.7992   
      2    0      6     5.85e-05   0.7458   2.7992   
      3    2      8     5.17e-06   0.7459*  2.7993*  

     Davidson procedure converged

 EOMEA-CCSD calculation:   CPU 0.42 s  wall 0.41 s


 Reference -- EOM-IP-CCSD state  1/A   transition
 Energy difference = 10.1911 eV.

 Left Dyson orbital norm is 0.9677

 Decomposition over MOs for normalized left alpha Dyson orbital:
 1     -8.3498e-18 
 2     9.7300e-18  
 3     4.0391e-16  
 4     -9.9978e-01 
 5     1.1184e-16  
 6     1.0980e-16  
 7     -5.3296e-16 
 8     2.0479e-02  
 9     -5.3000e-16 
 10    2.0043e-16  
 11    7.2681e-17  
 12    -4.6097e-17 
 13    -1.4857e-15 
 14    3.9721e-03  
 15    -5.7341e-17 
 16    -1.6996e-17 
 17    1.0241e-18  
 18    -7.3142e-17 


 Right Dyson orbital norm is 0.9656

 Decomposition over MOs for normalized right alpha Dyson orbital:
 1     4.0854e-17  
 2     7.0288e-18  
 3     3.3441e-16  
 4     -9.9978e-01 
 5     1.1396e-16  
 6     1.1076e-16  
 7     -5.3626e-16 
 8     2.0629e-02  
 9     -5.3329e-16 
 10    2.0294e-16  
 11    7.3438e-17  
 12    -4.9914e-17 
 13    -1.6934e-15 
 14    4.5000e-03  
 15    -9.2247e-17 
 16    -1.5423e-17 
 17    4.6231e-19  
 18    -7.2749e-17 


 Decomposition over AOs for the left alpha Dyson orbital:
  1.8927804542469446e-16  
  -1.3897616544116187e-16 
  -6.0450105633479510e-17 
  -6.0201300238077649e-01 
  -2.0412578812485406e-16 
  3.8244562501352722e-16  
  -2.9494891171540579e-16 
  -5.2603948354755137e-01 
  -5.5824335133183373e-16 
  6.6149179511352783e-17  
  6.6053831638406177e-19  
  -3.2492352692399829e-18 
  2.6179147594177062e-17  
  6.3515751163065052e-04  
  4.7020479157016394e-18  
  4.5806221791831419e-17  
  -6.0242682118247537e-16 
  7.8791361792979773e-17  
  -1.0138192653839372e-17 
   *****

 Decomposition over AOs for the right alpha Dyson orbital:
  1.9443470608798865e-16  
  -1.4715216067304438e-16 
  -6.2350617422131212e-17 
  -6.0185942442485896e-01 
  -1.6643430628751387e-16 
  3.8237999501982808e-16  
  -2.9633519720116985e-16 
  -5.2619827771191252e-01 
  -5.3371396372397639e-16 
  6.7728181881379370e-17  
  -3.0237366310720946e-18 
  -1.1384862207455801e-18 
  2.5801129776154218e-17  
  1.1646176393305431e-03  
  5.7322722599943269e-19  
  2.3986233275241034e-17  
  -6.1131187180261277e-16 
  5.6958266157328969e-17  
  -1.9077464915036938e-17 
   *****

     End transition


 Reference -- EOM-IP-CCSD state  2/A   transition
 Energy difference = 12.4826 eV.

 Left Dyson orbital norm is 0.9626

 Decomposition over MOs for normalized left alpha Dyson orbital:
 1     4.9807e-02  
 2     4.9008e-15  
 3     9.9860e-01  
 4     8.9275e-16  
 5     -9.7222e-04 
 6     -5.1017e-18 
 7     -1.6953e-02 
 8     4.4242e-16  
 9     1.3772e-15  
 10    -2.7035e-04 
 11    3.1341e-16  
 12    -4.4539e-03 
 13    1.8039e-03  
 14    5.7385e-16  
 15    -1.8829e-18 
 16    -2.6742e-03 
 17    2.5741e-17  
 18    -1.4436e-03 


 Right Dyson orbital norm is 0.9613

 Decomposition over MOs for normalized right alpha Dyson orbital:
 1     5.6193e-02  
 2     7.3238e-15  
 3     9.9825e-01  
 4     3.7685e-16  
 5     -2.0042e-03 
 6     6.9336e-17  
 7     -1.7799e-02 
 8     2.5256e-16  
 9     1.3722e-15  
 10    -1.2394e-03 
 11    2.5985e-16  
 12    -3.0722e-03 
 13    2.3320e-03  
 14    7.5585e-16  
 15    1.0629e-17  
 16    -2.8588e-03 
 17    2.7083e-17  
 18    -1.4769e-03 


 Decomposition over AOs for the left alpha Dyson orbital:
  7.6845969858241700e-02  
  -1.6635268935743261e-01 
  1.2123963874281119e-15  
  1.0316328826460687e-15  
  -5.3095392673046693e-01 
  -3.5620003077615464e-01 
  4.0818155330554466e-15  
  2.4004302728079912e-17  
  -3.7502927826639076e-01 
  1.9444893011333661e-02  
  1.8171301070091582e-17  
  -7.5770584919544375e-03 
  -1.9056937693063251e-16 
  1.9623314797182795e-17  
  5.0974712494941433e-03  
  1.2698953659643505e-01  
  1.1893361337495852e-01  
  1.2698953659643755e-01  
  1.1893361337495352e-01  
   *****

 Decomposition over AOs for the right alpha Dyson orbital:
  7.8342430249560113e-02  
  -1.6913124144979616e-01 
  2.4050493947200909e-15  
  5.2711044353047985e-16  
  -5.2876287028516644e-01 
  -3.6057965664812414e-01 
  4.6290388838240720e-15  
  -4.2603351733283140e-17 
  -3.7487571157245764e-01 
  1.9197307551497400e-02  
  1.7296413492785974e-17  
  -7.9270909431901175e-03 
  -2.8560474149394038e-16 
  -5.1288714847159507e-18 
  5.5833165620765481e-03  
  1.2747504929767597e-01  
  1.1895575419082405e-01  
  1.2747504929767961e-01  
  1.1895575419081984e-01  
   *****

     End transition


  Please note: Dyson orbitals above are computed for transitions between
  reference high spin triplet/quartet and all ionized states. Now starting
  transtioins from EOM spin-flip states.


 EOM-SF-CCSD state 1/A -- EOM-IP-CCSD state 1/A transition
 Energy difference = 9.9767 eV.

 Left Dyson orbital norm is 0.9440

 Decomposition over MOs for normalized left beta Dyson orbital:
 1     -7.1918e-02 
 2     -1.2714e-15 
 3     -9.8090e-01 
 4     5.5647e-16  
 5     -7.6807e-02 
 6     2.6605e-15  
 7     3.6852e-16  
 8     -1.5534e-01 
 9     -6.4253e-16 
 10    4.7894e-02  
 11    9.0119e-17  
 12    -3.6655e-03 
 13    -3.8542e-03 
 14    -5.8695e-16 
 15    -2.1182e-16 
 16    -1.6925e-02 
 17    -5.8814e-18 
 18    -3.9418e-03 


 Right Dyson orbital norm is 0.9522

 Decomposition over MOs for normalized right beta Dyson orbital:
 1     -8.0469e-02 
 2     -1.4833e-15 
 3     -9.8042e-01 
 4     5.7186e-16  
 5     -7.8077e-02 
 6     2.7687e-15  
 7     3.5803e-16  
 8     -1.5345e-01 
 9     -7.9413e-16 
 10    4.8273e-02  
 11    2.6954e-17  
 12    -1.8394e-03 
 13    -3.2677e-03 
 14    -5.3647e-16 
 15    -1.9479e-16 
 16    -1.7389e-02 
 17    -1.0839e-17 
 18    -3.7766e-03 


 Decomposition over AOs for the left beta Dyson orbital:
  1.0946985103958941e-01  
  -2.1042992974871849e-01 
  1.3051041719660858e-17  
  -5.0733192863959739e-16 
  -4.6730399140539369e-01 
  -5.1936905231811581e-01 
  3.5535789195947241e-15  
  -5.3097885765782078e-17 
  -3.5978616874226305e-01 
  3.2276037797175955e-03  
  -6.1565576377142219e-17 
  -1.8929399493406808e-02 
  -1.5197715508870033e-16 
  1.3530783297353821e-18  
  4.1424602662757069e-02  
  1.1702789315203288e-01  
  1.5897374308445872e-01  
  1.1702789315203323e-01  
  1.5897374308445106e-01  
   *****

 Decomposition over AOs for the right beta Dyson orbital:
  1.0750486388814579e-01  
  -2.0484703376290184e-01 
  -8.6508684918473434e-17 
  -3.2414083093944585e-16 
  -4.6828415965936815e-01 
  -5.1615316408016365e-01 
  3.5781541349234371e-15  
  -2.1941077679830017e-16 
  -3.6275834350997294e-01 
  3.8386407312521304e-03  
  -6.2055001084649101e-17 
  -1.9375566888354075e-02 
  -1.4677940518642358e-16 
  -1.3246154339564499e-17 
  4.0881402556127169e-02  
  1.1660262303226628e-01  
  1.5948545182389970e-01  
  1.1660262303226653e-01  
  1.5948545182389193e-01  
   *****

     End transition


 EOM-SF-CCSD state 1/A -- EOM-IP-CCSD state 2/A transition
 Energy difference = 12.2683 eV.

 Left Dyson orbital norm is 0.1682

 Decomposition over MOs for normalized left beta Dyson orbital:
 1     -4.2246e-15 
 2     3.5499e-16  
 3     2.8544e-15  
 4     9.6054e-01  
 5     -8.2579e-17 
 6     -6.3959e-16 
 7     -6.8999e-18 
 8     -5.7407e-16 
 9     2.3726e-01  
 10    -6.6890e-16 
 11    -3.6785e-17 
 12    1.8943e-16  
 13    -1.6064e-15 
 14    7.3585e-15  
 15    1.4515e-01  
 16    -1.1255e-16 
 17    7.0624e-17  
 18    4.2570e-16  


 Right Dyson orbital norm is 0.1676

 Decomposition over MOs for normalized right beta Dyson orbital:
 1     1.0261e-15  
 2     3.0609e-16  
 3     -1.1209e-15 
 4     9.6190e-01  
 5     -5.6180e-16 
 6     -6.4819e-16 
 7     -8.4674e-18 
 8     -2.0504e-15 
 9     2.3234e-01  
 10    -1.5292e-16 
 11    -3.6493e-17 
 12    1.7009e-16  
 13    -1.4266e-15 
 14    7.4358e-15  
 15    1.4411e-01  
 16    -1.9244e-16 
 17    6.6320e-17  
 18    3.0054e-16  


 Decomposition over AOs for the left beta Dyson orbital:
  -1.1462478787129490e-15 
  2.7830590839633430e-15  
  -3.5913635191692152e-17 
  -6.2427833039943936e-01 
  1.5475482046863244e-15  
  2.3101911768358240e-15  
  -7.0834741573106709e-17 
  -4.9437044473146657e-01 
  -1.7954889924520041e-16 
  1.4645646601440956e-16  
  3.1281998636422901e-16  
  -9.9092930239508255e-17 
  -3.3175102110948295e-17 
  -1.1913863860586352e-01 
  -1.1940440194727659e-16 
  4.2009056881271142e-16  
  -2.6227149101665105e-16 
  6.7472331188720885e-16  
  3.4560800510176407e-16  
   *****

 Decomposition over AOs for the right beta Dyson orbital:
  3.1509072157506821e-16  
  -7.7196980955895569e-16 
  -5.9833372689557667e-17 
  -6.1902130898953789e-01 
  -3.5035675946880806e-16 
  -7.2718158373616341e-16 
  -8.7072895329671677e-17 
  -5.0009626355593761e-01 
  -6.3589189941512937e-16 
  2.1780743905296159e-16  
  4.4096601768164210e-16  
  1.3060481736309150e-16  
  -3.4774011646145277e-17 
  -1.1814626846546761e-01 
  -2.8596330761973481e-17 
  -1.9072682616726178e-16 
  -4.5944421682685045e-16 
  3.4889486857974833e-17  
  1.4753129075109578e-16  
   *****

     End transition


 EOM-EA-CCSD state  1/A -- Reference  transition
 Energy difference = 0.7457 eV.

 Left Dyson orbital norm is 0.9641

 Decomposition over MOs for normalized left beta Dyson orbital:
 1     2.9148e-02  
 2     1.0064e-15  
 3     9.9492e-01  
 4     -1.8146e-16 
 5     4.6874e-02  
 6     -1.7283e-15 
 7     -1.0545e-15 
 8     7.9100e-02  
 9     3.9850e-16  
 10    -2.7622e-02 
 11    2.4405e-16  
 12    -5.7766e-03 
 13    -4.6781e-03 
 14    -2.5531e-16 
 15    8.4373e-17  
 16    1.9939e-03  
 17    1.4404e-16  
 18    3.2484e-03  


 Right Dyson orbital norm is 0.9602

 Decomposition over MOs for normalized right beta Dyson orbital:
 1     3.2839e-02  
 2     1.0796e-15  
 3     9.9530e-01  
 4     4.3569e-17  
 5     3.8597e-02  
 6     -1.2660e-15 
 7     -1.0703e-15 
 8     7.7339e-02  
 9     -2.5196e-16 
 10    -2.7915e-02 
 11    1.7820e-16  
 12    -4.2078e-03 
 13    -3.9224e-03 
 14    -1.8686e-16 
 15    4.5310e-17  
 16    1.6672e-03  
 17    1.3418e-16  
 18    3.3621e-03  


 Decomposition over AOs for the left beta Dyson orbital:
  -1.1786692309297654e-01 
  1.7108839944592755e-01  
  -6.0627284865290263e-16 
  9.2073161409145768e-17  
  3.8102462645007656e-01  
  6.6307072919400212e-01  
  -4.8481116760667469e-15 
  -4.1477597914637457e-17 
  3.9757544506417480e-01  
  -3.0056125873876845e-04 
  3.6750868956428373e-18  
  -6.6930303875715582e-03 
  2.4736745728563783e-16  
  1.3558575025364779e-17  
  -3.2284915793450171e-02 
  -9.9236858250451809e-02 
  -2.1328995836936857e-01 
  -9.9236858250452226e-02 
  -2.1328995836935788e-01 
   *****

 Decomposition over AOs for the right beta Dyson orbital:
  -1.1819311777806350e-01 
  1.7306245627511671e-01  
  -6.4511207135267998e-16 
  7.5199480591123003e-16  
  3.7725094941924348e-01  
  6.7324832929187861e-01  
  -4.9193318431649619e-15 
  -8.2359932860946890e-16 
  3.9261864317393841e-01  
  2.0615737499197324e-04  
  3.7773964068329747e-18  
  -7.0044615967110825e-03 
  2.3545454310427818e-16  
  5.4001603493512585e-17  
  -3.2914763053557547e-02 
  -1.0045619336487149e-01 
  -2.2382330461459113e-01 
  -1.0045619336487190e-01 
  -2.2382330461458017e-01 
   *****

     End transition


 EOM-EA-CCSD state  2/A -- Reference  transition
 Energy difference = 2.7989 eV.

 Left Dyson orbital norm is 0.9688

 Decomposition over MOs for normalized left beta Dyson orbital:
 1     5.8426e-18  
 2     2.0336e-17  
 3     -2.0329e-16 
 4     -9.9535e-01 
 5     1.1796e-15  
 6     3.7525e-16  
 7     -4.2390e-17 
 8     1.2000e-15  
 9     -9.6253e-02 
 10    -9.2700e-17 
 11    -7.8810e-17 
 12    -1.9925e-16 
 13    1.7060e-16  
 14    -1.2366e-16 
 15    -3.1834e-03 
 16    3.3413e-17  
 17    -3.5091e-17 
 18    -3.4196e-16 


 Right Dyson orbital norm is 0.9637

 Decomposition over MOs for normalized right beta Dyson orbital:
 1     -1.3257e-16 
 2     1.6745e-17  
 3     5.8323e-16  
 4     -9.9545e-01 
 5     1.3893e-16  
 6     5.0722e-16  
 7     -2.3937e-17 
 8     5.7980e-17  
 9     -9.5202e-02 
 10    -2.4562e-16 
 11    -4.5443e-17 
 12    -9.5777e-16 
 13    3.2867e-17  
 14    -1.1405e-16 
 15    -2.7489e-03 
 16    2.2115e-16  
 17    -3.2448e-17 
 18    1.7881e-16  


 Decomposition over AOs for the left beta Dyson orbital:
  8.3641074718010027e-17  
  -3.6167658892599964e-17 
  -6.6025891941369528e-17 
  4.6911510394990052e-01  
  5.7947954704982783e-16  
  -1.5915346645966574e-15 
  -8.0232968907851130e-18 
  6.5516866433500742e-01  
  5.5129447800875327e-16  
  1.2608355333870832e-17  
  6.0332353179210220e-17  
  3.5469308206806573e-19  
  -1.5428641670503113e-19 
  -2.1395612121157068e-02 
  -7.0725214312228912e-17 
  1.4407884446942801e-16  
  1.0371729802984447e-15  
  1.6606176337419269e-16  
  1.1737157333923765e-15  
   *****

 Decomposition over AOs for the right beta Dyson orbital:
  -2.7304407005637254e-16 
  9.1056084237486181e-16  
  2.1113678556566132e-17  
  4.6791900186539331e-01  
  -6.7243119669270043e-17 
  2.7049161985578531e-15  
  1.0721925465475292e-16  
  6.5625051451321259e-01  
  5.8728579565382980e-16  
  -1.0921780458341625e-15 
  4.8842187871956708e-17  
  -1.0166741403784519e-15 
  5.3910075876618725e-18  
  -2.1815951231343184e-02 
  -9.9506583786981738e-16 
  1.2122423375093051e-15  
  -1.4136271341276944e-15 
  1.1964447645463398e-15  
  -1.5998318067269026e-15 
   *****

     End transition


  Please note: Dyson orbitals above are computed for transitions between
  all electron attached and reference high spin triplet/quartet state. Now
  starting transtioins to EOM spin-flip states.


 EOM-EA-CCSD state 1/A -- EOM-SF-CCSD state 1/A transition
 Energy difference = 0.5314 eV.

 Left Dyson orbital norm is 0.9545

 Decomposition over MOs for normalized left alpha Dyson orbital:
 1     1.3127e-16  
 2     -1.0158e-16 
 3     5.6857e-16  
 4     -9.9509e-01 
 5     6.2582e-17  
 6     -7.7265e-17 
 7     -1.9998e-15 
 8     9.3533e-02  
 9     -2.0787e-15 
 10    3.3365e-16  
 11    9.5922e-17  
 12    -7.1868e-17 
 13    -1.2386e-14 
 14    3.2298e-02  
 15    -1.9878e-15 
 16    -3.2017e-17 
 17    -3.8062e-17 
 18    -8.5206e-17 


 Right Dyson orbital norm is 0.9479

 Decomposition over MOs for normalized right alpha Dyson orbital:
 1     8.6580e-17  
 2     -1.0195e-16 
 3     1.5310e-16  
 4     -9.9353e-01 
 5     -3.9535e-16 
 6     -1.2905e-16 
 7     -2.2557e-15 
 8     1.0883e-01  
 9     -2.3768e-15 
 10    2.9307e-16  
 11    8.9737e-17  
 12    -7.0939e-17 
 13    -1.2610e-14 
 14    3.2604e-02  
 15    -2.0149e-15 
 16    -1.6808e-16 
 17    -4.2205e-17 
 18    -8.0554e-17 


 Decomposition over AOs for the left alpha Dyson orbital:
  2.1912078924859732e-16  
  -9.2302164743905178e-17 
  -2.0728169627366048e-17 
  -5.2311813133227991e-01 
  -2.3942317387607799e-16 
  1.8727528538034073e-16  
  -1.6003987270497787e-16 
  -6.0433571074776504e-01 
  -7.1231443627723416e-16 
  -6.2699133482081657e-17 
  -1.4809735018786931e-16 
  -4.6125143669738564e-17 
  4.9167676040117706e-18  
  2.9712785290316530e-02  
  1.5415615487918088e-17  
  -2.8201439645668562e-17 
  -2.0192461006628571e-16 
  -1.4437267040891673e-17 
  -1.9379801679586520e-16 
   *****

 Decomposition over AOs for the right alpha Dyson orbital:
  2.4666826072074986e-16  
  1.7972059011950876e-17  
  -9.1294134688157388e-18 
  -5.0616698273767491e-01 
  4.8746132760713805e-17  
  -7.9870640243485742e-16 
  -8.7971123904971722e-17 
  -6.2048412699280586e-01 
  3.6786766007582815e-17  
  -1.0032807855063981e-16 
  -1.4552802627441094e-16 
  1.2578614380616029e-16  
  5.8779948429362715e-18  
  3.0178458877651897e-02  
  -9.0567052784255204e-17 
  5.3216563915329648e-17  
  5.5640831638371479e-16  
  3.3258721051061248e-17  
  4.4195795073288049e-16  
   *****

     End transition


 EOM-EA-CCSD state 2/A -- EOM-SF-CCSD state 1/A transition
 Energy difference = 2.5846 eV.

 Left Dyson orbital norm is 0.1871

 Decomposition over MOs for normalized left alpha Dyson orbital:
 1     3.9228e-01  
 2     1.8307e-15  
 3     8.8657e-01  
 4     -2.7458e-15 
 5     1.5984e-01  
 6     -2.1609e-14 
 7     -1.3745e-01 
 8     -2.0217e-15 
 9     9.1302e-15  
 10    6.7747e-02  
 11    3.0815e-15  
 12    -4.0567e-02 
 13    -4.0241e-02 
 14    -1.5911e-14 
 15    -1.0083e-15 
 16    -8.8359e-02 
 17    -2.1306e-16 
 18    2.0275e-03  


 Right Dyson orbital norm is 0.1892

 Decomposition over MOs for normalized right alpha Dyson orbital:
 1     3.9433e-01  
 2     1.7701e-15  
 3     8.7588e-01  
 4     -3.3071e-15 
 5     1.8820e-01  
 6     -2.4206e-14 
 7     -1.5040e-01 
 8     -5.1534e-15 
 9     1.0141e-14  
 10    8.2800e-02  
 11    3.5679e-15  
 12    -4.8754e-02 
 13    -4.5493e-02 
 14    -1.8066e-14 
 15    -1.0853e-15 
 16    -8.9438e-02 
 17    -2.5834e-16 
 18    1.8532e-03  


 Decomposition over AOs for the left alpha Dyson orbital:
  1.1944183840071086e-01  
  -2.3928567909250559e-01 
  1.0108310601822276e-15  
  -1.3989195066171230e-15 
  -3.8763244009197628e-01 
  -2.1907747446159123e-01 
  5.1198951595128874e-15  
  -1.6858864513532224e-15 
  -6.1360279613444191e-01 
  -3.8435308929998739e-02 
  6.1830067298791176e-17  
  1.1918633512695227e-01  
  -1.1467666184672834e-16 
  -1.9999995641845124e-16 
  -4.9759969431979856e-02 
  2.5108217754792363e-02  
  -1.2459494526530920e-01 
  2.5108217754793438e-02  
  -1.2459494526532040e-01 
   *****

 Decomposition over AOs for the right alpha Dyson orbital:
  1.1434266055813642e-01  
  -2.3506986873047464e-01 
  7.4139040494484435e-16  
  -4.7550971883784325e-15 
  -3.7887230587011217e-01 
  -1.4988168042583067e-01 
  4.1402424021130388e-15  
  1.2159438861716488e-15  
  -6.5924930655405523e-01 
  -4.0873461347670337e-02 
  2.3110637075941538e-17  
  1.2528562819050129e-01  
  -1.1326340734828757e-16 
  -3.5557730246015931e-16 
  -5.6833805813773147e-02 
  7.7263767706952438e-03  
  -1.6655458320178029e-01 
  7.7263767706961736e-03  
  -1.6655458320178904e-01 
   *****

     End transition

 Dyson orbitals calculation:   CPU 0.11 s  wall 0.11 s

 Total ccman2 time:   CPU 2.83 s  wall 2.85 s


 --------------------------------------------------------------
             Orbital Energies (a.u.) and Symmetries
 --------------------------------------------------------------

 Alpha MOs, Unrestricted
 -- Occupied --                  
-11.280  -0.945  -0.558  -0.502  -0.417
  1 A1    2 A1    1 B1    3 A1    1 B2                                         
 -- Virtual --                   
  0.262   0.295   0.717   0.722   0.723   0.948   1.104   1.167
  4 A1    2 B1    5 A1    2 B2    3 B1    6 A1    4 B1    7 A1                 
  1.895   1.897   1.913   2.254   2.512   4.367
  8 A1    3 B2    1 A2    9 A1    5 B1   10 A1                                 

 Beta MOs, Unrestricted
 -- Occupied --                  
-11.228  -0.782  -0.516
  1 A1    2 A1    1 B1                                                         
 -- Virtual --                   
  0.107   0.175   0.294   0.347   0.751   0.870   0.896   1.012
  3 A1    1 B2    4 A1    2 B1    3 B1    5 A1    2 B2    6 A1                 
  1.154   1.207   2.025   2.040   2.077   2.370   2.586   4.439
  4 B1    7 A1    8 A1    1 A2    3 B2    9 A1    5 B1   10 A1                 
 --------------------------------------------------------------

          Ground-State Mulliken Net Atomic Charges

     Atom                 Charge (a.u.)    Spin (a.u.)
  --------------------------------------------------------
      1 C                    -0.327425       2.190787
      2 H                     0.163712      -0.095393
      3 H                     0.163712      -0.095393
  --------------------------------------------------------
  Sum of atomic charges =     0.000000
  Sum of spin   charges =     2.000000

 -----------------------------------------------------------------
                    Cartesian Multipole Moments
 -----------------------------------------------------------------
    Charge (ESU x 10^10)
                 0.0000
    Dipole Moment (Debye)
         X       0.0000      Y      -0.0000      Z      -0.6359
       Tot       0.6359
    Quadrupole Moments (Debye-Ang)
        XX      -6.8991     XY       0.0000     YY      -7.9624
        XZ      -0.0000     YZ       0.0000     ZZ      -6.8599
    Octopole Moments (Debye-Ang^2)
       XXX       0.0000    XXY      -0.0000    XYY       0.0000
       YYY      -0.0000    XXZ      -0.9219    XYZ      -0.0000
       YYZ      -0.3142    XZZ       0.0000    YZZ      -0.0000
       ZZZ      -1.0862
    Hexadecapole Moments (Debye-Ang^3)
      XXXX     -14.1625   XXXY       0.0000   XXYY      -3.9763
      XYYY       0.0000   YYYY      -8.4342   XXXZ      -0.0000
      XXYZ       0.0000   XYYZ      -0.0000   YYYZ       0.0000
      XXZZ      -3.7627   XYZZ       0.0000   YYZZ      -3.2461
      XZZZ      -0.0000   YZZZ       0.0000   ZZZZ     -10.6276
 -----------------------------------------------------------------
Archival summary:
1\1\tin.anu.edu.au\SP\ProcedureUnspecified\6-31G*\12(3)\TueJan1617:02:392018TueJan1617:02:392018\0\\#,ProcedureUnspecified,6-31G*,\\0,3\C\H,1,1.1167\H,1,1.1167,2,102.07\\HF=-38.9033252\\@

 Total job time:  4.84s(wall), 4.78s(cpu) 
 Tue Jan 16 17:02:39 2018

        *************************************************************
        *                                                           *
        *  Thank you very much for using Q-Chem.  Have a nice day.  *
        *                                                           *
        *************************************************************


