/usr/local/qchem/22Jul11/exe/qcprog.exe .L-cysteine-Opt.inp.626.qcin.1 /scratch/atg/local/qchem626/

                  Welcome to Q-Chem
     A Quantum Leap Into The Future Of Chemistry

 Y. Shao, L. Fusti-Molnar, Y. Jung, J. Kussmann, C. Ochsenfeld,
 S. T. Brown, A. T. B. Gilbert, L. V. Slipchenko,S. V. Levchenko,
 D. P. O'Neill, R. A. DiStasio Jr., R. C. Lochan, T. Wang,
 G. J. O. Beran, N. A. Besley, J. M. Herbert, C. Y. Lin,
 T. Van Voorhis, S. H. Chien, A. Sodt, R. P. Steele, 
 V. A. Rassolov, P. E. Maslen, P. P. Korambath, R. D. Adamson,
 B. Austin, J. Baker, E. F. C. Byrd, H. Dachsel, R. J. Doerksen,
 A. Dreuw, B. D. Dunietz, A. D. Dutoi, T. R. Furlani,
 S. R. Gwaltney, A. Heyden, S. Hirata, C.-P. Hsu, G. Kedziora,
 R. Z. Khaliullin, P. Klunzinger, A. M. Lee, M. S. Lee, W. Liang,
 I. Lotan, N. Nair, B. Peters, E. I. Proynov, P. A. Pieniazek, 
 Y. M. Rhee, J. Ritchie, E. Rosta, C. D. Sherrill, 
 A. C. Simmonett, J. E. Subotnik, H. L. Woodcock III,
 W. Zhang, A. T. Bell, A. K. Chakraborty, D. M. Chipman,
 F. J. Keil, A. Warshel, W. J. Hehre, H. F. Schaefer III,
 J. Kong, A. I. Krylov, P. M. W. Gill, M. Head-Gordon,

 Additional authors for Version 3.1: 
 Z. Gan, Y. Zhao, N. E. Schultz, D. Truhlar, E. Epifanovsky and M. Oana.

 Additional authors for Version 3.2: 
 R. Baer, B. R. Brooks, D. Casanova, J.-D. Chai, C.-L. Cheng, 
 C. Cramer, D. Crittenden, A. Ghysels, G. Hawkins, E. G. Hohenstein, 
 C. Kelley, W. Kurlancheek, D. Liotard, E. Livshits, P. Manohar, 
 A. Marenich, D. Neuhauser, R. Olson, M. A. Rohrdanz, K. S. Thanthiriwatte, 
 A. J. W. Thom, V. Vanovschi, C. F. Williams, Q. Wu and Z.-Q. You. 
 Additional authors for Version 4.0: 
 E. Sundstrom, J. Parkhill, K. Lawler, D. Lambrecht, M. Goldey, R. Olivares-Amaya,
 Y. Bernard, L. Vogt, M. Watson, J. Liu, S. Yeganeh, B. Kaduk, O. Vydrov, X. Xu, 
 I. Kaliman, C. Zhang, N. Russ, I.Y. Zhang, W.A. Goddard III, F. Liu, R. King ,
 A. Landau, M. Wormit, A. Dreuw, M. Diedenhofen, A. Klamt, A.W. Lange, D. Ghosh,
 D. Kosenkov, A. Landau, D. Zuev, J. Deng, S.P. Mao, Y.C. Su, D. Small
 
 Q-Chem, Version 4.0, Q-Chem, Inc., Pittsburgh, PA (2007).


 MAC (Intel) OSX Version

 Q-chem begins on Mon Feb  6 10:50:39 2012  

aitkin.anu.edu.au
Host: 0
 Using version located at /usr/local/qchem/22Jul11/bin/qchem


theFileMan(): MAXOPENFILES=2510 MAX_SUB_FILE_NUM=16
Maximum size of a physical file is 2.0 GB, maximum size of a tmp-file is 32.0 GB


Total Memory Limit in MB = 2000
Mega-Array Size in MB = 62
Finally everything over in PARseQInput

--------------------------------------------------------------
User input:
--------------------------------------------------------------
$molecule
0 1
  H    0.575608   -1.045799    0.685458
  C    0.753125   -0.356934   -0.181107
  N    2.186096   -0.483524   -0.533363
  H    2.395201    0.067622   -1.339852
  H    2.403001   -1.439655   -0.716692
  C    0.439075    1.081207    0.243268
  H    0.864403    1.803975   -0.479464
  C   -0.184333   -0.759649   -1.325993
  O   -0.264217   -0.248260   -2.422658
  O   -1.046577   -1.792047   -1.208329
  H   -0.986100   -2.184836   -0.346108
  S    0.933706    1.495465    1.940948
  H   -0.656031    1.254593    0.228466
  H    1.451858    0.357619    2.331329
$end

$rem
   BASIS  =  6-31G
   EXCHANGE  =  B3LYP
   GUI  =  2
   JOB_TYPE  =  Optimization
$end

--------------------------------------------------------------
 ----------------------------------------------------
       Standard Nuclear Orientation (Angstroms)
    I     Atom         X            Y            Z
 ----------------------------------------------------
    1      H      -0.046969     0.017093    -1.368375
    2      C       0.175590    -0.308616    -0.318917
    3      N       0.064616    -1.785425    -0.303562
    4      H       0.308261    -2.142392     0.597062
    5      H       0.671897    -2.174376    -0.992598
    6      C      -0.855584     0.307981     0.631588
    7      H      -0.840358    -0.206108     1.611955
    8      C       1.573955     0.192296     0.062442
    9      O       2.153344     0.019454     1.113635
   10      O       2.333487     0.902485    -0.798893
   11      H       1.873502     1.041848    -1.617647
   12      S      -2.544435     0.388495    -0.031500
   13      H      -0.596025     1.364629     0.845279
   14      H      -2.370089    -0.144105    -1.215355
 ----------------------------------------------------
 Molecular Point Group                 C1    NOp =  1
 Largest Abelian Subgroup              C1    NOp =  1
 Nuclear Repulsion Energy =   370.1924449509 hartrees
 There are       32 alpha and       32 beta electrons
 Requested basis set is 6-31G
 There are 36 shells and 81 basis functions

Total QAlloc Memory Limit   2000 MB
Mega-Array Size        61 MB
MEM_STATIC part        62 MB

finished with qalloc call
 Job number = 2, Threshold = 1.00E-11
Integral type ranges set in mkLRange.C for JobNum: 2  <1-6|1-6>
Symmetry turned off temporarily
 Using the largest function pair in Schwarz integrals
Total number of integrals generated =           34860
Symmetry turned back on
 A cutoff of  1.0D-11 yielded    615 shell pairs
 There are      3252 function pairs
 Job number = 11, Threshold = 1.00E-11
Integral type ranges set in mkLRange.C for JobNum: 11  <1-6|7-7>
Total number of integrals generated =           45528
 Smallest overlap matrix eigenvalue = 4.56E-03
 Multipole matrices computed through 2nd order

  Scale SEOQF with 1.000000e-01/1.000000e-01/1.000000e-01

 Standard Electronic Orientation quadrupole field applied
 Nucleus-field energy     =     0.0000000077 hartrees
 Guess from superposition of atomic densities
 Warning:  Energy on first SCF cycle will be non-variational
scfman initvdwdat 
 A restricted hybrid HF-DFT SCF calculation will be
 performed using Pulay DIIS extrapolation
 Exchange:     0.2000 Hartree-Fock + 0.0800 Slater + 0.7200 Becke88
 Correlation:  0.8100 LYP + 0.1900 VWN1RPA
 Using SG-1 standard quadrature grid
 SCF converges when DIIS error is below 1.0E-08
Finding J and K together
 Job number = 22, Threshold = 1.00E-11
Integral type ranges set in mkLRange.C for JobNum: 22  <1-6|1-6>
Approximate symmetry reduction factor = 1.000000
Storing 34.37% of integrals
Total number of integrals generated =         5184722
Target Grid is being used
 CPU 0.00 s  wall 0.00 s
NTotSigB2 = 371459
Total Number of Grid Points = 39332
 CPU 3.15 s  wall 3.33 s

 Total DFTman time = 3.15 CPUs 3.33 Wall
Fock build time:  4.87 s (CPU) 5.23 s (wall)
DIIS Errors:  Max 9.75E-01 RMS 1.05E-01

Current DIIS subspace size = 1
REM_GRID_RESTART_DIIS = 0

 ---------------------------------------
  Cycle       Energy         DIIS Error
 ---------------------------------------
    1    -723.1076215422      1.05E-01  00000
Finding J and K together
 Job number = 22, Threshold = 1.00E-11
Integral type ranges set in mkLRange.C for JobNum: 22  <1-6|1-6>
Approximate symmetry reduction factor = 1.000000
Storing 34.37% of integrals
Reusing in-core integrals buffer for job 22
Target Grid is being used
 CPU 0.00 s  wall 0.00 s
NTotSigB2 = 371459
Total Number of Grid Points = 39332
 CPU 2.67 s  wall 2.70 s

 Total DFTman time = 2.67 CPUs 2.70 Wall
Fock build time:  3.41 s (CPU) 3.46 s (wall)
DIIS Errors:  Max 2.28E-01 RMS 1.67E-02

Current DIIS subspace size = 2
REM_GRID_RESTART_DIIS = 0

    2    -721.5473707496      1.67E-02  00000
Finding J and K together
 Job number = 22, Threshold = 1.00E-11
Integral type ranges set in mkLRange.C for JobNum: 22  <1-6|1-6>
Approximate symmetry reduction factor = 1.000000
Storing 34.37% of integrals
Reusing in-core integrals buffer for job 22
Target Grid is being used
 CPU 0.00 s  wall 0.00 s
NTotSigB2 = 371459
Total Number of Grid Points = 39332
 CPU 2.64 s  wall 2.66 s

 Total DFTman time = 2.64 CPUs 2.66 Wall
Fock build time:  3.37 s (CPU) 3.40 s (wall)
DIIS Errors:  Max 5.16E-01 RMS 3.20E-02

Current DIIS subspace size = 3
REM_GRID_RESTART_DIIS = 0

    3    -721.0536010452      3.20E-02  00000
Finding J and K together
 Job number = 22, Threshold = 1.00E-11
Integral type ranges set in mkLRange.C for JobNum: 22  <1-6|1-6>
Approximate symmetry reduction factor = 1.000000
Storing 34.37% of integrals
Reusing in-core integrals buffer for job 22
Target Grid is being used
 CPU 0.00 s  wall 0.00 s
NTotSigB2 = 371459
Total Number of Grid Points = 39332
 CPU 2.62 s  wall 2.62 s

 Total DFTman time = 2.62 CPUs 2.62 Wall
Fock build time:  3.34 s (CPU) 3.36 s (wall)
DIIS Errors:  Max 9.48E-02 RMS 6.68E-03

Current DIIS subspace size = 4
REM_GRID_RESTART_DIIS = 0

    4    -721.7194364089      6.68E-03  00000
Finding J and K together
 Job number = 22, Threshold = 1.00E-11
Integral type ranges set in mkLRange.C for JobNum: 22  <1-6|1-6>
Approximate symmetry reduction factor = 1.000000
Storing 34.37% of integrals
Reusing in-core integrals buffer for job 22
Target Grid is being used
 CPU 0.00 s  wall 0.00 s
NTotSigB2 = 371459
Total Number of Grid Points = 39332
 CPU 2.59 s  wall 2.60 s

 Total DFTman time = 2.59 CPUs 2.60 Wall
Fock build time:  3.32 s (CPU) 3.34 s (wall)
DIIS Errors:  Max 2.29E-02 RMS 1.49E-03

Current DIIS subspace size = 5
REM_GRID_RESTART_DIIS = 0

    5    -721.7485246477      1.49E-03  00000
Finding J and K together
 Job number = 22, Threshold = 1.00E-11
Integral type ranges set in mkLRange.C for JobNum: 22  <1-6|1-6>
Approximate symmetry reduction factor = 1.000000
Storing 34.37% of integrals
Reusing in-core integrals buffer for job 22
Target Grid is being used
 CPU 0.00 s  wall 0.00 s
NTotSigB2 = 371459
Total Number of Grid Points = 39332
 CPU 2.56 s  wall 2.56 s

 Total DFTman time = 2.56 CPUs 2.56 Wall
Fock build time:  3.28 s (CPU) 3.30 s (wall)
DIIS Errors:  Max 5.82E-03 RMS 5.58E-04

Current DIIS subspace size = 6
REM_GRID_RESTART_DIIS = 0

    6    -721.7496937919      5.58E-04  00000
Finding J and K together
 Job number = 22, Threshold = 1.00E-11
Integral type ranges set in mkLRange.C for JobNum: 22  <1-6|1-6>
Approximate symmetry reduction factor = 1.000000
Storing 34.37% of integrals
Reusing in-core integrals buffer for job 22
Target Grid is being used
 CPU 0.00 s  wall 0.00 s
NTotSigB2 = 371459
Total Number of Grid Points = 39332
 CPU 2.54 s  wall 2.55 s

 Total DFTman time = 2.54 CPUs 2.55 Wall
Fock build time:  3.27 s (CPU) 3.30 s (wall)
DIIS Errors:  Max 1.84E-03 RMS 1.34E-04

Current DIIS subspace size = 7
REM_GRID_RESTART_DIIS = 0

    7    -721.7499316687      1.34E-04  00000
Finding J and K together
 Job number = 22, Threshold = 1.00E-11
Integral type ranges set in mkLRange.C for JobNum: 22  <1-6|1-6>
Approximate symmetry reduction factor = 1.000000
Storing 34.37% of integrals
Reusing in-core integrals buffer for job 22
Target Grid is being used
 CPU 0.00 s  wall 0.00 s
NTotSigB2 = 371459
Total Number of Grid Points = 39332
 CPU 2.53 s  wall 2.57 s

 Total DFTman time = 2.53 CPUs 2.57 Wall
Fock build time:  3.26 s (CPU) 3.32 s (wall)
DIIS Errors:  Max 6.62E-04 RMS 3.66E-05

Current DIIS subspace size = 8
REM_GRID_RESTART_DIIS = 0

    8    -721.7499448102      3.66E-05  00000
Finding J and K together
 Job number = 22, Threshold = 1.00E-11
Integral type ranges set in mkLRange.C for JobNum: 22  <1-6|1-6>
Approximate symmetry reduction factor = 1.000000
Storing 34.37% of integrals
Reusing in-core integrals buffer for job 22
Target Grid is being used
 CPU 0.00 s  wall 0.00 s
NTotSigB2 = 371459
Total Number of Grid Points = 39332
 CPU 2.46 s  wall 2.51 s

 Total DFTman time = 2.46 CPUs 2.51 Wall
Fock build time:  3.19 s (CPU) 3.26 s (wall)
DIIS Errors:  Max 1.20E-04 RMS 7.53E-06

Current DIIS subspace size = 9
REM_GRID_RESTART_DIIS = 0

    9    -721.7499457784      7.53E-06  00000
Finding J and K together
 Job number = 22, Threshold = 1.00E-11
Integral type ranges set in mkLRange.C for JobNum: 22  <1-6|1-6>
Approximate symmetry reduction factor = 1.000000
Storing 34.37% of integrals
Reusing in-core integrals buffer for job 22
Target Grid is being used
 CPU 0.00 s  wall 0.00 s
NTotSigB2 = 371459
Total Number of Grid Points = 39332
 CPU 2.37 s  wall 2.38 s

 Total DFTman time = 2.37 CPUs 2.38 Wall
Fock build time:  3.10 s (CPU) 3.19 s (wall)
DIIS Errors:  Max 3.19E-05 RMS 2.45E-06

Current DIIS subspace size = 10
REM_GRID_RESTART_DIIS = 0

   10    -721.7499458173      2.45E-06  00000
Finding J and K together
 Job number = 22, Threshold = 1.00E-11
Integral type ranges set in mkLRange.C for JobNum: 22  <1-6|1-6>
Approximate symmetry reduction factor = 1.000000
Storing 34.37% of integrals
Reusing in-core integrals buffer for job 22
Target Grid is being used
 CPU 0.00 s  wall 0.00 s
NTotSigB2 = 371459
Total Number of Grid Points = 39332
 CPU 2.32 s  wall 2.35 s

 Total DFTman time = 2.32 CPUs 2.35 Wall
Fock build time:  3.04 s (CPU) 3.10 s (wall)
DIIS Errors:  Max 7.28E-06 RMS 5.66E-07

Current DIIS subspace size = 11
REM_GRID_RESTART_DIIS = 0

   11    -721.7499458216      5.66E-07  00000
Finding J and K together
 Job number = 22, Threshold = 1.00E-11
Integral type ranges set in mkLRange.C for JobNum: 22  <1-6|1-6>
Approximate symmetry reduction factor = 1.000000
Storing 34.37% of integrals
Reusing in-core integrals buffer for job 22
Target Grid is being used
 CPU 0.00 s  wall 0.00 s
NTotSigB2 = 371459
Total Number of Grid Points = 39332
 CPU 2.26 s  wall 2.33 s

 Total DFTman time = 2.26 CPUs 2.33 Wall
Fock build time:  3.02 s (CPU) 3.20 s (wall)
DIIS Errors:  Max 2.51E-06 RMS 1.82E-07

Current DIIS subspace size = 12
REM_GRID_RESTART_DIIS = 0

   12    -721.7499458218      1.82E-07  00000
Finding J and K together
 Job number = 22, Threshold = 1.00E-11
Integral type ranges set in mkLRange.C for JobNum: 22  <1-6|1-6>
Approximate symmetry reduction factor = 1.000000
Storing 34.37% of integrals
Reusing in-core integrals buffer for job 22
Target Grid is being used
 CPU 0.00 s  wall 0.00 s
NTotSigB2 = 371459
Total Number of Grid Points = 39332
 CPU 2.09 s  wall 2.13 s

 Total DFTman time = 2.09 CPUs 2.13 Wall
Fock build time:  2.83 s (CPU) 2.90 s (wall)
DIIS Errors:  Max 3.88E-07 RMS 2.53E-08

Current DIIS subspace size = 13
REM_GRID_RESTART_DIIS = 0

   13    -721.7499458215      2.53E-08  00000
Finding J and K together
 Job number = 22, Threshold = 1.00E-11
Integral type ranges set in mkLRange.C for JobNum: 22  <1-6|1-6>
Approximate symmetry reduction factor = 1.000000
Storing 34.37% of integrals
Reusing in-core integrals buffer for job 22
Target Grid is being used
 CPU 0.00 s  wall 0.00 s
NTotSigB2 = 371459
Total Number of Grid Points = 39332
 CPU 1.76 s  wall 1.78 s

 Total DFTman time = 1.76 CPUs 1.78 Wall
Fock build time:  2.49 s (CPU) 2.52 s (wall)
DIIS Errors:  Max 8.30E-08 RMS 5.19E-09

Current DIIS subspace size = 14
REM_GRID_RESTART_DIIS = 0

   14    -721.7499458219      5.19E-09  00000 Convergence criterion met
 ---------------------------------------
 SCF time:  CPU 45.96 s  wall 47.15 s
 SCF   energy in the final basis set = -721.7499458219
 Total energy in the final basis set = -721.7499458219
Symmetry turned off temporarily
 Analysis of SCF Wavefunction

 --------------------------------------------------------------
                    Orbital Energies (a.u.)
 --------------------------------------------------------------

 Alpha MOs
 -- Occupied --
-88.863 -19.207 -19.147 -14.345 -10.337 -10.277 -10.241  -7.946
 -5.911  -5.906  -5.898  -1.146  -1.048  -0.937  -0.824  -0.742
 -0.660  -0.635  -0.562  -0.540  -0.496  -0.466  -0.446  -0.436
 -0.421  -0.401  -0.396  -0.336  -0.323  -0.295  -0.262  -0.243
 -- Virtual --
 -0.026   0.022   0.041   0.057   0.074   0.106   0.118   0.140
  0.150   0.181   0.212   0.236   0.321   0.353   0.362   0.374
  0.383   0.408   0.543   0.552   0.575   0.594   0.621   0.631
  0.672   0.719   0.745   0.773   0.788   0.809   0.837   0.870
  0.905   0.909   0.923   0.934   0.979   0.988   1.002   1.031
  1.054   1.071   1.140   1.211   1.387   1.502   1.507   1.770
  2.036
 --------------------------------------------------------------

          Ground-State Mulliken Net Atomic Charges

     Atom                 Charge (a.u.)
  ----------------------------------------
      1 H                     0.140865
      2 C                    -0.091506
      3 N                    -0.618071
      4 H                     0.299605
      5 H                     0.286833
      6 C                    -0.476890
      7 H                     0.203465
      8 C                     0.461774
      9 O                    -0.384392
     10 O                    -0.505702
     11 H                     0.361003
     12 S                     0.069440
     13 H                     0.194721
     14 H                     0.058854
  ----------------------------------------
  Sum of atomic charges =    -0.000000

 -----------------------------------------------------------------
                    Cartesian Multipole Moments
 -----------------------------------------------------------------
    Charge (ESU x 10^10)
                 0.0000
    Dipole Moment (Debye)
         X      -0.1411      Y      -0.7543      Z      -3.4517
       Tot       3.5360
    Quadrupole Moments (Debye-Ang)
        XX     -67.7741     XY      -3.1642     YY     -48.5220
        XZ      -5.0011     YZ      -1.1472     ZZ     -44.4778
    Octapole Moments (Debye-Ang^2)
       XXX       2.9218    XXY     -11.4500    XYY      17.2903
       YYY      -5.9952    XXZ     -19.6593    XYZ      -1.3373
       YYZ       1.1665    XZZ       1.1938    YZZ       1.4658
       ZZZ     -12.5138
    Hexadecapole Moments (Debye-Ang^3)
      XXXX   -1189.4407   XXXY      -1.6327   XXYY    -230.1769
      XYYY      -8.8483   YYYY    -231.0170   XXXZ       9.6834
      XXYZ       3.8936   XYYZ      -9.2460   YYYZ      -5.5479
      XXZZ    -194.0983   XYZZ       6.4881   YYZZ     -57.7921
      XZZZ     -22.0610   YZZZ      -9.1255   ZZZZ    -152.5982
 -----------------------------------------------------------------
 Calculating analytic gradient of the SCF energy
 Job number = 111, Threshold = 1.00E-11
Integral type ranges set in mkLRange.C for JobNum: 11  <1-6|7-7>
Total number of integrals generated =           45528
Finding J and K together
 ML is being used
 Job number = 122, Threshold = 1.00E-11
Integral type ranges set in mkLRange.C for JobNum: 22  <1-6|1-6>
Total number of integrals generated =         4679834
 Gradient of Coulomb and Exchange Energy
            1           2           3           4           5           6
    1   0.9798000  -2.0201588   6.2912218  -1.4905654  -2.9873649  -0.3628080
    2  -1.0137820   0.3399952   9.3510851   2.4974654   2.3855178  -0.1471724
    3   4.6980076  -0.5044914   3.3435759  -4.3295905   3.3054503  -2.1264758
            7           8           9          10          11          12
    1   0.4871182   7.4695065 -15.1014049 -14.7133015   1.7372733  19.3841871
    2   1.8593629   0.2292463   1.9897185  -7.8434616  -1.1610728  -5.3220678
    3  -4.8504378   9.7721702 -19.7468325   4.1613811   4.6946591  -2.0530707
           13          14
    1  -0.1893668   0.5158634
    2  -4.7253308   1.5604963
    3  -1.1057427   4.7413973
 CPU 0.00 s  wall 0.00 s
NTotSigB2 = 371459
Total Number of Grid Points = 39332
 CPU 7.38 s  wall 7.43 s

 Total DFTman time = 7.38 CPUs 7.43 Wall
 Gradient of SCF Energy
            1           2           3           4           5           6
    1  -0.0027840   0.0041948   0.0020644  -0.0006751  -0.0072211  -0.0285949
    2   0.0024829   0.0007265  -0.0250628   0.0084115   0.0132517  -0.0165615
    3  -0.0128255   0.0145575   0.0040339  -0.0176642   0.0147984  -0.0184001
            7           8           9          10          11          12
    1   0.0009608  -0.0121167   0.0088444  -0.0033746   0.0082891   0.0406734
    2  -0.0002398  -0.0007473   0.0255806  -0.0109235  -0.0104838  -0.0134817
    3   0.0102286  -0.0113465  -0.0473629   0.0230075   0.0325595  -0.0232687
           13          14
    1  -0.0023326  -0.0079278
    2   0.0095291   0.0175180
    3   0.0015864   0.0300961
 Max gradient component =       4.736E-02
 RMS gradient           =       1.713E-02
 Gradient time:  CPU 14.12 s  wall 14.52 s
 ------------------------------------------------------------------------------
                     drvman        : Timing summary (seconds)
 ------------------------------------------------------------------------------
     job step          cpu (% of tot)      sys (% of tot)     wall (% of tot)
 ------------------------------------------------------------------------------
 ------------------------------------------------------------------------------
   Grand Totals     0.1412E+02          0.6200E-04          0.1452E+02
 ------------------------------------------------------------------------------
 Geometry Optimization Parameters
   NAtoms,    NIC,     NZ,  NCons,   NDum,   NFix, NCnnct, MaxDiis
       14      87       0       0       0       0       0       0


** GEOMETRY OPTIMIZATION IN DELOCALIZED INTERNAL COORDINATES **
   Searching for a Minimum

   Optimization Cycle:   1

                       Coordinates (Angstroms)
     ATOM              X           Y           Z
      1  H        -0.046969    0.017093   -1.368375
      2  C         0.175590   -0.308616   -0.318917
      3  N         0.064616   -1.785425   -0.303562
      4  H         0.308261   -2.142392    0.597062
      5  H         0.671897   -2.174376   -0.992598
      6  C        -0.855584    0.307981    0.631588
      7  H        -0.840358   -0.206108    1.611955
      8  C         1.573955    0.192296    0.062442
      9  O         2.153344    0.019454    1.113635
     10  O         2.333487    0.902485   -0.798893
     11  H         1.873502    1.041848   -1.617647
     12  S        -2.544435    0.388495   -0.031500
     13  H        -0.596025    1.364629    0.845279
     14  H        -2.370089   -0.144105   -1.215355
   Point Group: c1    Number of degrees of freedom:    36


   Energy is   -721.749945822


 Attempting to Generate Delocalized Internal Coordinates

 36 Hessian modes will be used to form the next step
  Hessian Eigenvalues:
     0.002000    0.004741    0.004924    0.004948    0.008160    0.022227
     0.039086    0.043295    0.044584    0.053735    0.057075    0.061605
     0.117171    0.140561    0.160000    0.160000    0.160000    0.160000
     0.171023    0.187524    0.219805    0.248849    0.249993    0.250000
     0.289937    0.290981    0.292411    0.314472    0.327225    0.329105
     0.344494    0.478725    0.481451    0.549698    0.578166    0.987050

 Minimum Search - Taking Simple RFO Step
 Searching for Lamda that Minimizes Along All modes
 Value Taken    Lamda =  -0.03920593
 Calculated Step too Large.  Step scaled by  0.750402
 Step Taken.  Stepsize is  0.300000

                             Maximum     Tolerance    Cnvgd?
         Gradient           0.065212      0.000300      NO
         Displacement       0.165165      0.001200      NO
         Energy change     *********      0.000001      NO


 New Cartesian Coordinates Obtained by Inverse Iteration

 Displacement from previous Coordinates is:  0.404063
 ----------------------------------------------------
       Standard Nuclear Orientation (Angstroms)
    I     Atom         X            Y            Z
 ----------------------------------------------------
    1      H      -0.010118     0.052350    -1.351787
    2      C       0.196840    -0.282299    -0.317886
    3      N       0.072574    -1.754139    -0.313722
    4      H       0.278289    -2.139797     0.600784
    5      H       0.656999    -2.192847    -1.014547
    6      C      -0.837006     0.342730     0.630062
    7      H      -0.816259    -0.181103     1.593901
    8      C       1.595926     0.186387     0.091873
    9      O       2.095637    -0.069096     1.184495
   10      O       2.321292     0.910516    -0.831991
   11      H       1.859904     1.080296    -1.669370
   12      S      -2.580620     0.373131    -0.020602
   13      H      -0.563815     1.386279     0.841638
   14      H      -2.368448    -0.239153    -1.207734
 ----------------------------------------------------
 Molecular Point Group                 C1    NOp =  1
 Largest Abelian Subgroup              C1    NOp =  1
 Nuclear Repulsion Energy =   367.5173442512 hartrees
 There are       32 alpha and       32 beta electrons
 JobOver = FALSE
 Applying Cartesian multipole field
    Component          Value
    ---------          -----
     (2,0,0)        1.00000E-11
     (0,2,0)        2.00000E-11
     (0,0,2)       -3.00000E-11
 Nucleus-field energy     =     0.0000000075 hartrees
 Requested basis set is 6-31G
 There are 36 shells and 81 basis functions
 Job number = 2, Threshold = 1.00E-11
Integral type ranges set in mkLRange.C for JobNum: 2  <1-6|1-6>
Symmetry turned off temporarily
Total number of integrals generated =           34876
Symmetry turned back on
 A cutoff of  1.0D-11 yielded    616 shell pairs
 There are      3256 function pairs
 Job number = 11, Threshold = 1.00E-11
Integral type ranges set in mkLRange.C for JobNum: 11  <1-6|7-7>
Total number of integrals generated =           45584
 Smallest overlap matrix eigenvalue = 4.94E-03
 Multipole matrices computed through 2nd order
 Guess MOs from SCF MO coefficient file
Reading MOs from coefficient file
Reading MOs from coefficient file
 A restricted hybrid HF-DFT SCF calculation will be
 performed using Pulay DIIS extrapolation
 Exchange:     0.2000 Hartree-Fock + 0.0800 Slater + 0.7200 Becke88
 Correlation:  0.8100 LYP + 0.1900 VWN1RPA
 Using SG-1 standard quadrature grid
 SCF converges when DIIS error is below 1.0E-08
Geometry optimization detected.  Setting ReadMinima to 0
Setting SaveMinima to 0
Finding J and K together
 Job number = 22, Threshold = 1.00E-11
Integral type ranges set in mkLRange.C for JobNum: 22  <1-6|1-6>
Storing 34.29% of integrals
Total number of integrals generated =         5234352
Target Grid is being used
 CPU 0.00 s  wall 0.00 s
NTotSigB2 = 370839
Total Number of Grid Points = 39332
 CPU 4.27 s  wall 4.35 s

 Total DFTman time = 4.27 CPUs 4.35 Wall
Fock build time:  5.91 s (CPU) 6.01 s (wall)
DIIS Errors:  Max 1.08E-01 RMS 6.43E-03

Current DIIS subspace size = 1
REM_GRID_RESTART_DIIS = 0

 ---------------------------------------
  Cycle       Energy         DIIS Error
 ---------------------------------------
    1    -721.7261818169      6.43E-03  00000
Finding J and K together
 Job number = 22, Threshold = 1.00E-11
Integral type ranges set in mkLRange.C for JobNum: 22  <1-6|1-6>
Storing 34.29% of integrals
Reusing in-core integrals buffer for job 22
Target Grid is being used
 CPU 0.00 s  wall 0.00 s
NTotSigB2 = 370839
Total Number of Grid Points = 39332
 CPU 2.62 s  wall 2.65 s

 Total DFTman time = 2.62 CPUs 2.65 Wall
Fock build time:  3.36 s (CPU) 3.43 s (wall)
DIIS Errors:  Max 1.50E-02 RMS 8.14E-04

Current DIIS subspace size = 2
REM_GRID_RESTART_DIIS = 0

    2    -721.7659463327      8.14E-04  00000
Finding J and K together
 Job number = 22, Threshold = 1.00E-11
Integral type ranges set in mkLRange.C for JobNum: 22  <1-6|1-6>
Storing 34.29% of integrals
Reusing in-core integrals buffer for job 22
Target Grid is being used
 CPU 0.00 s  wall 0.00 s
NTotSigB2 = 370839
Total Number of Grid Points = 39332
 CPU 2.58 s  wall 2.59 s

 Total DFTman time = 2.58 CPUs 2.59 Wall
Fock build time:  3.32 s (CPU) 3.36 s (wall)
DIIS Errors:  Max 2.93E-02 RMS 1.50E-03

Current DIIS subspace size = 3
REM_GRID_RESTART_DIIS = 0

    3    -721.7650326236      1.50E-03  00000
Finding J and K together
 Job number = 22, Threshold = 1.00E-11
Integral type ranges set in mkLRange.C for JobNum: 22  <1-6|1-6>
Storing 34.29% of integrals
Reusing in-core integrals buffer for job 22
Target Grid is being used
 CPU 0.00 s  wall 0.00 s
NTotSigB2 = 370839
Total Number of Grid Points = 39332
 CPU 2.55 s  wall 2.56 s

 Total DFTman time = 2.55 CPUs 2.56 Wall
Fock build time:  3.27 s (CPU) 3.29 s (wall)
DIIS Errors:  Max 3.62E-03 RMS 2.57E-04

Current DIIS subspace size = 4
REM_GRID_RESTART_DIIS = 0

    4    -721.7665018516      2.57E-04  00000
Finding J and K together
 Job number = 22, Threshold = 1.00E-11
Integral type ranges set in mkLRange.C for JobNum: 22  <1-6|1-6>
Storing 34.29% of integrals
Reusing in-core integrals buffer for job 22
Target Grid is being used
 CPU 0.00 s  wall 0.00 s
NTotSigB2 = 370839
Total Number of Grid Points = 39332
 CPU 2.53 s  wall 2.55 s

 Total DFTman time = 2.53 CPUs 2.55 Wall
Fock build time:  3.25 s (CPU) 3.29 s (wall)
DIIS Errors:  Max 1.73E-03 RMS 1.08E-04

Current DIIS subspace size = 5
REM_GRID_RESTART_DIIS = 0

    5    -721.7665435022      1.08E-04  00000
Finding J and K together
 Job number = 22, Threshold = 1.00E-11
Integral type ranges set in mkLRange.C for JobNum: 22  <1-6|1-6>
Storing 34.29% of integrals
Reusing in-core integrals buffer for job 22
Target Grid is being used
 CPU 0.00 s  wall 0.00 s
NTotSigB2 = 370839
Total Number of Grid Points = 39332
 CPU 2.46 s  wall 2.47 s

 Total DFTman time = 2.46 CPUs 2.47 Wall
Fock build time:  3.19 s (CPU) 3.21 s (wall)
DIIS Errors:  Max 2.62E-04 RMS 2.45E-05

Current DIIS subspace size = 6
REM_GRID_RESTART_DIIS = 0

    6    -721.7665507742      2.45E-05  00000
Finding J and K together
 Job number = 22, Threshold = 1.00E-11
Integral type ranges set in mkLRange.C for JobNum: 22  <1-6|1-6>
Storing 34.29% of integrals
Reusing in-core integrals buffer for job 22
Target Grid is being used
 CPU 0.00 s  wall 0.00 s
NTotSigB2 = 370839
Total Number of Grid Points = 39332
 CPU 2.41 s  wall 2.41 s

 Total DFTman time = 2.41 CPUs 2.41 Wall
Fock build time:  3.13 s (CPU) 3.15 s (wall)
DIIS Errors:  Max 1.09E-04 RMS 7.42E-06

Current DIIS subspace size = 7
REM_GRID_RESTART_DIIS = 0

    7    -721.7665512282      7.42E-06  00000
Finding J and K together
 Job number = 22, Threshold = 1.00E-11
Integral type ranges set in mkLRange.C for JobNum: 22  <1-6|1-6>
Storing 34.29% of integrals
Reusing in-core integrals buffer for job 22
Target Grid is being used
 CPU 0.00 s  wall 0.00 s
NTotSigB2 = 370839
Total Number of Grid Points = 39332
 CPU 2.36 s  wall 2.36 s

 Total DFTman time = 2.36 CPUs 2.36 Wall
Fock build time:  3.07 s (CPU) 3.09 s (wall)
DIIS Errors:  Max 5.01E-05 RMS 2.84E-06

Current DIIS subspace size = 8
REM_GRID_RESTART_DIIS = 0

    8    -721.7665512654      2.84E-06  00000
Finding J and K together
 Job number = 22, Threshold = 1.00E-11
Integral type ranges set in mkLRange.C for JobNum: 22  <1-6|1-6>
Storing 34.29% of integrals
Reusing in-core integrals buffer for job 22
Target Grid is being used
 CPU 0.00 s  wall 0.00 s
NTotSigB2 = 370839
Total Number of Grid Points = 39332
 CPU 2.33 s  wall 2.35 s

 Total DFTman time = 2.33 CPUs 2.35 Wall
Fock build time:  3.05 s (CPU) 3.09 s (wall)
DIIS Errors:  Max 9.39E-06 RMS 5.22E-07

Current DIIS subspace size = 9
REM_GRID_RESTART_DIIS = 0

    9    -721.7665512708      5.22E-07  00000
Finding J and K together
 Job number = 22, Threshold = 1.00E-11
Integral type ranges set in mkLRange.C for JobNum: 22  <1-6|1-6>
Storing 34.29% of integrals
Reusing in-core integrals buffer for job 22
Target Grid is being used
 CPU 0.00 s  wall 0.00 s
NTotSigB2 = 370839
Total Number of Grid Points = 39332
 CPU 2.25 s  wall 2.33 s

 Total DFTman time = 2.25 CPUs 2.33 Wall
Fock build time:  2.98 s (CPU) 3.11 s (wall)
DIIS Errors:  Max 1.99E-06 RMS 1.28E-07

Current DIIS subspace size = 10
REM_GRID_RESTART_DIIS = 0

   10    -721.7665512711      1.28E-07  00000
Finding J and K together
 Job number = 22, Threshold = 1.00E-11
Integral type ranges set in mkLRange.C for JobNum: 22  <1-6|1-6>
Storing 34.29% of integrals
Reusing in-core integrals buffer for job 22
Target Grid is being used
 CPU 0.00 s  wall 0.00 s
NTotSigB2 = 370839
Total Number of Grid Points = 39332
 CPU 2.06 s  wall 2.08 s

 Total DFTman time = 2.06 CPUs 2.08 Wall
Fock build time:  2.78 s (CPU) 2.83 s (wall)
DIIS Errors:  Max 4.50E-07 RMS 3.68E-08

Current DIIS subspace size = 11
REM_GRID_RESTART_DIIS = 0

   11    -721.7665512716      3.68E-08  00000
Finding J and K together
 Job number = 22, Threshold = 1.00E-11
Integral type ranges set in mkLRange.C for JobNum: 22  <1-6|1-6>
Storing 34.29% of integrals
Reusing in-core integrals buffer for job 22
Target Grid is being used
 CPU 0.00 s  wall 0.00 s
NTotSigB2 = 370839
Total Number of Grid Points = 39332
 CPU 1.83 s  wall 1.84 s

 Total DFTman time = 1.83 CPUs 1.84 Wall
Fock build time:  2.55 s (CPU) 2.57 s (wall)
DIIS Errors:  Max 1.40E-07 RMS 8.05E-09

Current DIIS subspace size = 12
REM_GRID_RESTART_DIIS = 0

   12    -721.7665512714      8.05E-09  00000 Convergence criterion met
 ---------------------------------------
 SCF time:  CPU 40.01 s  wall 40.57 s
 SCF   energy in the final basis set = -721.7665512714
 Total energy in the final basis set = -721.7665512714
Symmetry turned off temporarily
 Analysis of SCF Wavefunction

 --------------------------------------------------------------
                    Orbital Energies (a.u.)
 --------------------------------------------------------------

 Alpha MOs
 -- Occupied --
-88.865 -19.211 -19.159 -14.343 -10.344 -10.271 -10.239  -7.946
 -5.911  -5.906  -5.898  -1.126  -1.049  -0.928  -0.812  -0.736
 -0.660  -0.633  -0.556  -0.534  -0.492  -0.462  -0.445  -0.429
 -0.420  -0.398  -0.388  -0.338  -0.328  -0.299  -0.259  -0.241
 -- Virtual --
 -0.031   0.018   0.032   0.051   0.072   0.105   0.123   0.139
  0.152   0.181   0.212   0.239   0.327   0.332   0.367   0.373
  0.384   0.409   0.544   0.552   0.574   0.589   0.613   0.629
  0.657   0.718   0.742   0.758   0.780   0.804   0.840   0.876
  0.899   0.906   0.923   0.931   0.977   0.980   0.992   1.036
  1.052   1.091   1.161   1.210   1.390   1.465   1.520   1.769
  2.043
 --------------------------------------------------------------

          Ground-State Mulliken Net Atomic Charges

     Atom                 Charge (a.u.)
  ----------------------------------------
      1 H                     0.136640
      2 C                    -0.091897
      3 N                    -0.634807
      4 H                     0.301210
      5 H                     0.288569
      6 C                    -0.460707
      7 H                     0.201652
      8 C                     0.517819
      9 O                    -0.396022
     10 O                    -0.545408
     11 H                     0.380995
     12 S                     0.049344
     13 H                     0.189884
     14 H                     0.062730
  ----------------------------------------
  Sum of atomic charges =    -0.000000

 -----------------------------------------------------------------
                    Cartesian Multipole Moments
 -----------------------------------------------------------------
    Charge (ESU x 10^10)
                -0.0000
    Dipole Moment (Debye)
         X       0.0542      Y      -0.6288      Z      -3.4491
       Tot       3.5063
    Quadrupole Moments (Debye-Ang)
        XX     -67.2930     XY      -2.4562     YY     -48.0442
        XZ      -5.0405     YZ      -0.8637     ZZ     -44.6649
    Octapole Moments (Debye-Ang^2)
       XXX       5.6234    XXY     -10.6935    XYY      17.2264
       YYY      -6.4270    XXZ     -18.9397    XYZ      -1.6291
       YYZ       0.2195    XZZ       2.4063    YZZ       2.2962
       ZZZ     -14.8912
    Hexadecapole Moments (Debye-Ang^3)
      XXXX   -1191.5186   XXXY       2.4768   XXYY    -230.9921
      XYYY      -6.1863   YYYY    -224.2584   XXXZ      10.7518
      XXYZ       6.7556   XYYZ     -10.0634   YYYZ      -3.4754
      XXZZ    -198.1530   XYZZ       8.7379   YYZZ     -57.3810
      XZZZ     -24.5094   YZZZ      -8.3913   ZZZZ    -159.1274
 -----------------------------------------------------------------
 Calculating analytic gradient of the SCF energy
 Job number = 111, Threshold = 1.00E-11
Integral type ranges set in mkLRange.C for JobNum: 11  <1-6|7-7>
Total number of integrals generated =           45584
Finding J and K together
 ML is being used
 Job number = 122, Threshold = 1.00E-11
Integral type ranges set in mkLRange.C for JobNum: 22  <1-6|1-6>
Total number of integrals generated =         4667098
 Gradient of Coulomb and Exchange Energy
            1           2           3           4           5           6
    1   0.9371660  -1.5071540   5.7028910  -1.2270655  -2.7566254  -0.0862241
    2  -1.1369605   0.4370971   8.8592875   2.6627763   2.7033782  -0.8866094
    3   4.6542963  -0.5696654   3.5545368  -4.3396675   3.3386468  -1.7472746
            7           8           9          10          11          12
    1   0.5082590   3.9660482 -13.1806209 -13.2690970   1.5275395  19.5391756
    2   1.9399283  -1.4989735   3.7207966  -7.4590473  -1.4190539  -5.0865776
    3  -4.7297052   9.2342552 -20.5192837   5.0273574   4.8029091  -2.0657832
           13          14
    1  -0.4757733   0.3214809
    2  -4.6845162   1.8484743
    3  -1.1972596   4.5566376
 CPU 0.00 s  wall 0.00 s
NTotSigB2 = 370839
Total Number of Grid Points = 39332
 CPU 7.49 s  wall 7.85 s

 Total DFTman time = 7.49 CPUs 7.85 Wall
 Gradient of SCF Energy
            1           2           3           4           5           6
    1  -0.0011419   0.0064509  -0.0035701   0.0015526   0.0002800  -0.0161244
    2   0.0004109   0.0050706  -0.0102755   0.0020950   0.0034603  -0.0078267
    3  -0.0049026   0.0096743   0.0003910  -0.0042284   0.0040612  -0.0095800
            7           8           9          10          11          12
    1   0.0011732  -0.0030888   0.0004807  -0.0049123   0.0042336   0.0163810
    2   0.0009057   0.0003729   0.0013977  -0.0004222  -0.0007450  -0.0050150
    3   0.0038405  -0.0045909   0.0000724  -0.0042201   0.0049686  -0.0058363
           13          14
    1   0.0016340  -0.0033483
    2   0.0029109   0.0076605
    3   0.0022042   0.0081461
 Max gradient component =       1.638E-02
 RMS gradient           =       5.745E-03
 Gradient time:  CPU 14.13 s  wall 14.52 s
 ------------------------------------------------------------------------------
                     drvman        : Timing summary (seconds)
 ------------------------------------------------------------------------------
     job step          cpu (% of tot)      sys (% of tot)     wall (% of tot)
 ------------------------------------------------------------------------------
 ------------------------------------------------------------------------------
   Grand Totals     0.1413E+02          0.6300E-04          0.1452E+02
 ------------------------------------------------------------------------------
 Geometry Optimization Parameters
   NAtoms,    NIC,     NZ,  NCons,   NDum,   NFix, NCnnct, MaxDiis
       14      87       0       0       0       0       0       0

 Cartesian Hessian Update
 Hessian Updated using BFGS Update


** GEOMETRY OPTIMIZATION IN DELOCALIZED INTERNAL COORDINATES **
   Searching for a Minimum

   Optimization Cycle:   2

                       Coordinates (Angstroms)
     ATOM              X           Y           Z
      1  H        -0.010118    0.052350   -1.351787
      2  C         0.196840   -0.282299   -0.317886
      3  N         0.072574   -1.754139   -0.313722
      4  H         0.278289   -2.139797    0.600784
      5  H         0.656999   -2.192847   -1.014547
      6  C        -0.837006    0.342730    0.630062
      7  H        -0.816259   -0.181103    1.593901
      8  C         1.595926    0.186387    0.091873
      9  O         2.095637   -0.069096    1.184495
     10  O         2.321292    0.910516   -0.831991
     11  H         1.859904    1.080296   -1.669370
     12  S        -2.580620    0.373131   -0.020602
     13  H        -0.563815    1.386279    0.841638
     14  H        -2.368448   -0.239153   -1.207734
   Point Group: c1    Number of degrees of freedom:    36


   Energy is   -721.766551271

 Hessian Updated using BFGS Update

 34 Hessian modes will be used to form the next step
  Hessian Eigenvalues:
     0.001999    0.004740    0.004924    0.004937    0.008161    0.022226
     0.039121    0.043396    0.044550    0.053724    0.057202    0.061583
     0.117407    0.140369    0.157702    0.165076    0.171078    0.187486
     0.219741    0.238619    0.249996    0.282657    0.288072    0.292394
     0.313309    0.323074    0.326550    0.329210    0.347227    0.478544
     0.481582    0.568831    0.590395    1.012394

 Minimum Search - Taking Simple RFO Step
 Searching for Lamda that Minimizes Along All modes
 Value Taken    Lamda =  -0.00686407
 Calculated Step too Large.  Step scaled by  0.471626
 Step Taken.  Stepsize is  0.300000

                             Maximum     Tolerance    Cnvgd?
         Gradient           0.009282      0.000300      NO
         Displacement       0.159714      0.001200      NO
         Energy change     -0.016605      0.000001      NO


 New Cartesian Coordinates Obtained by Inverse Iteration

 Displacement from previous Coordinates is:  0.576521
 ----------------------------------------------------
       Standard Nuclear Orientation (Angstroms)
    I     Atom         X            Y            Z
 ----------------------------------------------------
    1      H       0.012585     0.093801    -1.361951
    2      C       0.203819    -0.255263    -0.334490
    3      N       0.044013    -1.719606    -0.343816
    4      H       0.217863    -2.125848     0.571228
    5      H       0.605666    -2.181613    -1.051814
    6      C      -0.823792     0.384585     0.612121
    7      H      -0.788652    -0.121624     1.582078
    8      C       1.612128     0.171352     0.102805
    9      O       2.098043    -0.136817     1.188096
   10      O       2.360525     0.909444    -0.792328
   11      H       1.898335     1.117885    -1.624245
   12      S      -2.590982     0.345103    -0.015375
   13      H      -0.567010     1.435289     0.790145
   14      H      -2.381347    -0.443430    -1.107340
 ----------------------------------------------------
 Molecular Point Group                 C1    NOp =  1
 Largest Abelian Subgroup              C1    NOp =  1
 Nuclear Repulsion Energy =   367.2230922615 hartrees
 There are       32 alpha and       32 beta electrons
 JobOver = FALSE
 Applying Cartesian multipole field
    Component          Value
    ---------          -----
     (2,0,0)        1.00000E-11
     (0,2,0)        2.00000E-11
     (0,0,2)       -3.00000E-11
 Nucleus-field energy     =     0.0000000076 hartrees
 Requested basis set is 6-31G
 There are 36 shells and 81 basis functions
 Job number = 2, Threshold = 1.00E-11
Integral type ranges set in mkLRange.C for JobNum: 2  <1-6|1-6>
Symmetry turned off temporarily
Total number of integrals generated =           34859
Symmetry turned back on
 A cutoff of  1.0D-11 yielded    614 shell pairs
 There are      3251 function pairs
 Job number = 11, Threshold = 1.00E-11
Integral type ranges set in mkLRange.C for JobNum: 11  <1-6|7-7>
Total number of integrals generated =           45514
 Smallest overlap matrix eigenvalue = 4.98E-03
 Multipole matrices computed through 2nd order
 Guess MOs from SCF MO coefficient file
Reading MOs from coefficient file
Reading MOs from coefficient file
 A restricted hybrid HF-DFT SCF calculation will be
 performed using Pulay DIIS extrapolation
 Exchange:     0.2000 Hartree-Fock + 0.0800 Slater + 0.7200 Becke88
 Correlation:  0.8100 LYP + 0.1900 VWN1RPA
 Using SG-1 standard quadrature grid
 SCF converges when DIIS error is below 1.0E-08
Geometry optimization detected.  Setting ReadMinima to 0
Setting SaveMinima to 0
Finding J and K together
 Job number = 22, Threshold = 1.00E-11
Integral type ranges set in mkLRange.C for JobNum: 22  <1-6|1-6>
Storing 34.40% of integrals
Total number of integrals generated =         5228512
Target Grid is being used
 CPU 0.00 s  wall 0.00 s
NTotSigB2 = 369550
Total Number of Grid Points = 39332
 CPU 4.24 s  wall 4.28 s

 Total DFTman time = 4.24 CPUs 4.28 Wall
Fock build time:  5.88 s (CPU) 6.00 s (wall)
DIIS Errors:  Max 4.35E-02 RMS 2.99E-03

Current DIIS subspace size = 1
REM_GRID_RESTART_DIIS = 0

 ---------------------------------------
  Cycle       Energy         DIIS Error
 ---------------------------------------
    1    -721.7557093454      2.99E-03  00000
Finding J and K together
 Job number = 22, Threshold = 1.00E-11
Integral type ranges set in mkLRange.C for JobNum: 22  <1-6|1-6>
Storing 34.40% of integrals
Reusing in-core integrals buffer for job 22
Target Grid is being used
 CPU 0.00 s  wall 0.00 s
NTotSigB2 = 369550
Total Number of Grid Points = 39332
 CPU 2.58 s  wall 2.60 s

 Total DFTman time = 2.58 CPUs 2.60 Wall
Fock build time:  3.30 s (CPU) 3.34 s (wall)
DIIS Errors:  Max 3.30E-03 RMS 2.72E-04

Current DIIS subspace size = 2
REM_GRID_RESTART_DIIS = 0

    2    -721.7693842824      2.72E-04  00000
Finding J and K together
 Job number = 22, Threshold = 1.00E-11
Integral type ranges set in mkLRange.C for JobNum: 22  <1-6|1-6>
Storing 34.40% of integrals
Reusing in-core integrals buffer for job 22
Target Grid is being used
 CPU 0.00 s  wall 0.00 s
NTotSigB2 = 369550
Total Number of Grid Points = 39332
 CPU 2.54 s  wall 2.55 s

 Total DFTman time = 2.54 CPUs 2.55 Wall
Fock build time:  3.26 s (CPU) 3.28 s (wall)
DIIS Errors:  Max 4.86E-03 RMS 2.77E-04

Current DIIS subspace size = 3
REM_GRID_RESTART_DIIS = 0

    3    -721.7694360233      2.77E-04  00000
Finding J and K together
 Job number = 22, Threshold = 1.00E-11
Integral type ranges set in mkLRange.C for JobNum: 22  <1-6|1-6>
Storing 34.40% of integrals
Reusing in-core integrals buffer for job 22
Target Grid is being used
 CPU 0.00 s  wall 0.00 s
NTotSigB2 = 369550
Total Number of Grid Points = 39332
 CPU 2.51 s  wall 2.51 s

 Total DFTman time = 2.51 CPUs 2.51 Wall
Fock build time:  3.23 s (CPU) 3.25 s (wall)
DIIS Errors:  Max 2.14E-03 RMS 1.13E-04

Current DIIS subspace size = 4
REM_GRID_RESTART_DIIS = 0

    4    -721.7694891974      1.13E-04  00000
Finding J and K together
 Job number = 22, Threshold = 1.00E-11
Integral type ranges set in mkLRange.C for JobNum: 22  <1-6|1-6>
Storing 34.40% of integrals
Reusing in-core integrals buffer for job 22
Target Grid is being used
 CPU 0.00 s  wall 0.00 s
NTotSigB2 = 369550
Total Number of Grid Points = 39332
 CPU 2.47 s  wall 2.48 s

 Total DFTman time = 2.47 CPUs 2.48 Wall
Fock build time:  3.19 s (CPU) 3.21 s (wall)
DIIS Errors:  Max 9.71E-04 RMS 6.05E-05

Current DIIS subspace size = 5
REM_GRID_RESTART_DIIS = 0

    5    -721.7694952639      6.05E-05  00000
Finding J and K together
 Job number = 22, Threshold = 1.00E-11
Integral type ranges set in mkLRange.C for JobNum: 22  <1-6|1-6>
Storing 34.40% of integrals
Reusing in-core integrals buffer for job 22
Target Grid is being used
 CPU 0.00 s  wall 0.00 s
NTotSigB2 = 369550
Total Number of Grid Points = 39332
 CPU 2.47 s  wall 2.53 s

 Total DFTman time = 2.47 CPUs 2.53 Wall
Fock build time:  3.19 s (CPU) 3.26 s (wall)
DIIS Errors:  Max 1.88E-04 RMS 1.32E-05

Current DIIS subspace size = 6
REM_GRID_RESTART_DIIS = 0

    6    -721.7694977015      1.32E-05  00000
Finding J and K together
 Job number = 22, Threshold = 1.00E-11
Integral type ranges set in mkLRange.C for JobNum: 22  <1-6|1-6>
Storing 34.40% of integrals
Reusing in-core integrals buffer for job 22
Target Grid is being used
 CPU 0.00 s  wall 0.00 s
NTotSigB2 = 369550
Total Number of Grid Points = 39332
 CPU 2.44 s  wall 2.55 s

 Total DFTman time = 2.44 CPUs 2.55 Wall
Fock build time:  3.17 s (CPU) 3.30 s (wall)
DIIS Errors:  Max 3.72E-05 RMS 2.74E-06

Current DIIS subspace size = 7
REM_GRID_RESTART_DIIS = 0

    7    -721.7694978305      2.74E-06  00000
Finding J and K together
 Job number = 22, Threshold = 1.00E-11
Integral type ranges set in mkLRange.C for JobNum: 22  <1-6|1-6>
Storing 34.40% of integrals
Reusing in-core integrals buffer for job 22
Target Grid is being used
 CPU 0.00 s  wall 0.00 s
NTotSigB2 = 369550
Total Number of Grid Points = 39332
 CPU 2.37 s  wall 2.42 s

 Total DFTman time = 2.37 CPUs 2.42 Wall
Fock build time:  3.10 s (CPU) 3.17 s (wall)
DIIS Errors:  Max 1.13E-05 RMS 9.55E-07

Current DIIS subspace size = 8
REM_GRID_RESTART_DIIS = 0

    8    -721.7694978376      9.55E-07  00000
Finding J and K together
 Job number = 22, Threshold = 1.00E-11
Integral type ranges set in mkLRange.C for JobNum: 22  <1-6|1-6>
Storing 34.40% of integrals
Reusing in-core integrals buffer for job 22
Target Grid is being used
 CPU 0.00 s  wall 0.00 s
NTotSigB2 = 369550
Total Number of Grid Points = 39332
 CPU 2.24 s  wall 2.26 s

 Total DFTman time = 2.24 CPUs 2.26 Wall
Fock build time:  2.96 s (CPU) 3.00 s (wall)
DIIS Errors:  Max 5.87E-06 RMS 3.27E-07

Current DIIS subspace size = 9
REM_GRID_RESTART_DIIS = 0

    9    -721.7694978386      3.27E-07  00000
Finding J and K together
 Job number = 22, Threshold = 1.00E-11
Integral type ranges set in mkLRange.C for JobNum: 22  <1-6|1-6>
Storing 34.40% of integrals
Reusing in-core integrals buffer for job 22
Target Grid is being used
 CPU 0.00 s  wall 0.00 s
NTotSigB2 = 369550
Total Number of Grid Points = 39332
 CPU 2.15 s  wall 2.16 s

 Total DFTman time = 2.15 CPUs 2.16 Wall
Fock build time:  2.87 s (CPU) 2.90 s (wall)
DIIS Errors:  Max 1.31E-06 RMS 7.77E-08

Current DIIS subspace size = 10
REM_GRID_RESTART_DIIS = 0

   10    -721.7694978385      7.77E-08  00000
Finding J and K together
 Job number = 22, Threshold = 1.00E-11
Integral type ranges set in mkLRange.C for JobNum: 22  <1-6|1-6>
Storing 34.40% of integrals
Reusing in-core integrals buffer for job 22
Target Grid is being used
 CPU 0.00 s  wall 0.00 s
NTotSigB2 = 369550
Total Number of Grid Points = 39332
 CPU 2.01 s  wall 2.03 s

 Total DFTman time = 2.01 CPUs 2.03 Wall
Fock build time:  2.73 s (CPU) 2.77 s (wall)
DIIS Errors:  Max 2.85E-07 RMS 2.27E-08

Current DIIS subspace size = 11
REM_GRID_RESTART_DIIS = 0

   11    -721.7694978383      2.27E-08  00000
Finding J and K together
 Job number = 22, Threshold = 1.00E-11
Integral type ranges set in mkLRange.C for JobNum: 22  <1-6|1-6>
Storing 34.40% of integrals
Reusing in-core integrals buffer for job 22
Target Grid is being used
 CPU 0.00 s  wall 0.00 s
NTotSigB2 = 369550
Total Number of Grid Points = 39332
 CPU 1.77 s  wall 1.82 s

 Total DFTman time = 1.77 CPUs 1.82 Wall
Fock build time:  2.50 s (CPU) 2.57 s (wall)
DIIS Errors:  Max 8.99E-08 RMS 6.02E-09

Current DIIS subspace size = 12
REM_GRID_RESTART_DIIS = 0

   12    -721.7694978385      6.02E-09  00000 Convergence criterion met
 ---------------------------------------
 SCF time:  CPU 39.53 s  wall 40.19 s
 SCF   energy in the final basis set = -721.7694978385
 Total energy in the final basis set = -721.7694978385
Symmetry turned off temporarily
 Analysis of SCF Wavefunction

 --------------------------------------------------------------
                    Orbital Energies (a.u.)
 --------------------------------------------------------------

 Alpha MOs
 -- Occupied --
-88.864 -19.211 -19.159 -14.343 -10.344 -10.270 -10.239  -7.945
 -5.910  -5.905  -5.897  -1.125  -1.049  -0.927  -0.808  -0.733
 -0.658  -0.632  -0.556  -0.535  -0.491  -0.462  -0.446  -0.427
 -0.420  -0.396  -0.389  -0.338  -0.328  -0.298  -0.260  -0.241
 -- Virtual --
 -0.032   0.019   0.032   0.051   0.072   0.105   0.124   0.138
  0.153   0.180   0.207   0.239   0.327   0.333   0.369   0.373
  0.385   0.413   0.543   0.554   0.569   0.588   0.612   0.628
  0.658   0.716   0.738   0.758   0.774   0.803   0.840   0.878
  0.898   0.909   0.924   0.930   0.979   0.982   0.993   1.042
  1.057   1.092   1.168   1.211   1.396   1.459   1.514   1.766
  2.047
 --------------------------------------------------------------

          Ground-State Mulliken Net Atomic Charges

     Atom                 Charge (a.u.)
  ----------------------------------------
      1 H                     0.140128
      2 C                    -0.091862
      3 N                    -0.643348
      4 H                     0.303410
      5 H                     0.291327
      6 C                    -0.454480
      7 H                     0.201108
      8 C                     0.520005
      9 O                    -0.396807
     10 O                    -0.545158
     11 H                     0.380972
     12 S                     0.035197
     13 H                     0.187695
     14 H                     0.071814
  ----------------------------------------
  Sum of atomic charges =     0.000000

 -----------------------------------------------------------------
                    Cartesian Multipole Moments
 -----------------------------------------------------------------
    Charge (ESU x 10^10)
                 0.0000
    Dipole Moment (Debye)
         X       0.0340      Y      -0.6303      Z      -3.4070
       Tot       3.4649
    Quadrupole Moments (Debye-Ang)
        XX     -67.4996     XY      -1.4366     YY     -47.1648
        XZ      -5.3533     YZ      -0.3624     ZZ     -45.3097
    Octapole Moments (Debye-Ang^2)
       XXX       4.4426    XXY     -10.5103    XYY      15.8511
       YYY      -5.7532    XXZ     -18.8862    XYZ      -2.4133
       YYZ      -0.4247    XZZ       3.5966    YZZ       2.5781
       ZZZ     -14.4871
    Hexadecapole Moments (Debye-Ang^3)
      XXXX   -1205.3473   XXXY       4.9567   XXYY    -230.1007
      XYYY      -7.5552   YYYY    -215.9157   XXXZ       8.2578
      XXYZ       8.7835   XYYZ     -11.5855   YYYZ      -3.7016
      XXZZ    -202.8323   XYZZ       9.4819   YYZZ     -55.9871
      XZZZ     -25.2812   YZZZ      -7.9608   ZZZZ    -158.5137
 -----------------------------------------------------------------
 Calculating analytic gradient of the SCF energy
 Job number = 111, Threshold = 1.00E-11
Integral type ranges set in mkLRange.C for JobNum: 11  <1-6|7-7>
Total number of integrals generated =           45514
Finding J and K together
 ML is being used
 Job number = 122, Threshold = 1.00E-11
Integral type ranges set in mkLRange.C for JobNum: 22  <1-6|1-6>
Total number of integrals generated =         4658546
 Gradient of Coulomb and Exchange Energy
            1           2           3           4           5           6
    1   0.9002498  -1.4518210   5.5110928  -1.0417960  -2.6366650  -0.2386080
    2  -1.2629635   0.4765203   8.4943363   2.7834236   2.8373097  -1.4017073
    3   4.6639146  -0.4259926   3.7273087  -4.3703080   3.4190961  -1.6374907
            7           8           9          10          11          12
    1   0.5645844   3.8830159 -12.9556974 -13.4785463   1.5113173  19.6149686
    2   1.8723730  -2.0748520   4.7459161  -7.3297152  -1.5986257  -5.2782485
    3  -4.6947436   9.1484507 -20.4357397   4.7337358   4.7108488  -1.9707083
           13          14
    1  -0.5214216   0.3393266
    2  -4.7608816   2.4971148
    3  -1.0675915   4.1992197
 CPU 0.00 s  wall 0.00 s
NTotSigB2 = 369550
Total Number of Grid Points = 39332
 CPU 7.36 s  wall 7.40 s

 Total DFTman time = 7.36 CPUs 7.40 Wall
 Gradient of SCF Energy
            1           2           3           4           5           6
    1  -0.0012256   0.0051583  -0.0035742   0.0014118   0.0013226  -0.0107907
    2  -0.0005234   0.0040712  -0.0061910   0.0007926   0.0012951  -0.0033028
    3  -0.0026182   0.0065004  -0.0002170  -0.0013649   0.0016692  -0.0071146
            7           8           9          10          11          12
    1  -0.0001576  -0.0025055   0.0007473  -0.0025642   0.0024513   0.0091684
    2   0.0006879   0.0013230   0.0008157  -0.0007072  -0.0006560  -0.0048961
    3   0.0018750  -0.0037275   0.0004167  -0.0022107   0.0028483  -0.0010061
           13          14
    1   0.0023952  -0.0018372
    2   0.0011956   0.0060953
    3   0.0020330   0.0029161
 Max gradient component =       1.079E-02
 RMS gradient           =       3.642E-03
 Gradient time:  CPU 14.05 s  wall 14.33 s
 ------------------------------------------------------------------------------
                     drvman        : Timing summary (seconds)
 ------------------------------------------------------------------------------
     job step          cpu (% of tot)      sys (% of tot)     wall (% of tot)
 ------------------------------------------------------------------------------
 ------------------------------------------------------------------------------
   Grand Totals     0.1405E+02          0.6100E-04          0.1433E+02
 ------------------------------------------------------------------------------
 Geometry Optimization Parameters
   NAtoms,    NIC,     NZ,  NCons,   NDum,   NFix, NCnnct, MaxDiis
       14      87       0       0       0       0       0       0

 Cartesian Hessian Update
 Hessian Updated using BFGS Update


** GEOMETRY OPTIMIZATION IN DELOCALIZED INTERNAL COORDINATES **
   Searching for a Minimum

   Optimization Cycle:   3

                       Coordinates (Angstroms)
     ATOM              X           Y           Z
      1  H         0.012585    0.093801   -1.361951
      2  C         0.203819   -0.255263   -0.334490
      3  N         0.044013   -1.719606   -0.343816
      4  H         0.217863   -2.125848    0.571228
      5  H         0.605666   -2.181613   -1.051814
      6  C        -0.823792    0.384585    0.612121
      7  H        -0.788652   -0.121624    1.582078
      8  C         1.612128    0.171352    0.102805
      9  O         2.098043   -0.136817    1.188096
     10  O         2.360525    0.909444   -0.792328
     11  H         1.898335    1.117885   -1.624245
     12  S        -2.590982    0.345103   -0.015375
     13  H        -0.567010    1.435289    0.790145
     14  H        -2.381347   -0.443430   -1.107340
   Point Group: c1    Number of degrees of freedom:    36


   Energy is   -721.769497838

 Hessian Updated using BFGS Update

 35 Hessian modes will be used to form the next step
  Hessian Eigenvalues:
     0.001095    0.004460    0.004841    0.004942    0.008428    0.022216
     0.037820    0.044369    0.050984    0.054653    0.057143    0.061515
     0.117614    0.142151    0.155235    0.160752    0.165436    0.171652
     0.187303    0.212987    0.249575    0.253377    0.287424    0.289496
     0.298419    0.316549    0.322076    0.327595    0.330711    0.348544
     0.479850    0.504684    0.570408    0.591329    1.013108

 Minimum Search - Taking Simple RFO Step
 Searching for Lamda that Minimizes Along All modes
 Value Taken    Lamda =  -0.00694378
 Calculated Step too Large.  Step scaled by  0.353622
 Step Taken.  Stepsize is  0.300000

                             Maximum     Tolerance    Cnvgd?
         Gradient           0.005061      0.000300      NO
         Displacement       0.162851      0.001200      NO
         Energy change     -0.002947      0.000001      NO


 New Cartesian Coordinates Obtained by Inverse Iteration

 Displacement from previous Coordinates is:  0.536867
 ----------------------------------------------------
       Standard Nuclear Orientation (Angstroms)
    I     Atom         X            Y            Z
 ----------------------------------------------------
    1      H       0.035883     0.126039    -1.373107
    2      C       0.210869    -0.237832    -0.350916
    3      N       0.018091    -1.693291    -0.372280
    4      H       0.164301    -2.116260     0.541004
    5      H       0.558044    -2.172750    -1.086431
    6      C      -0.809555     0.416990     0.593167
    7      H      -0.767426    -0.068279     1.571919
    8      C       1.625201     0.152073     0.110525
    9      O       2.093481    -0.193570     1.192122
   10      O       2.386320     0.916593    -0.752587
   11      H       1.924525     1.159036    -1.578423
   12      S      -2.588201     0.336572    -0.030785
   13      H      -0.566781     1.474034     0.735787
   14      H      -2.383558    -0.626097    -0.984882
 ----------------------------------------------------
 Molecular Point Group                 C1    NOp =  1
 Largest Abelian Subgroup              C1    NOp =  1
 Nuclear Repulsion Energy =   367.2868767637 hartrees
 There are       32 alpha and       32 beta electrons
 JobOver = FALSE
 Applying Cartesian multipole field
    Component          Value
    ---------          -----
     (2,0,0)        1.00000E-11
     (0,2,0)        2.00000E-11
     (0,0,2)       -3.00000E-11
 Nucleus-field energy     =     0.0000000077 hartrees
 Requested basis set is 6-31G
 There are 36 shells and 81 basis functions
 Job number = 2, Threshold = 1.00E-11
Integral type ranges set in mkLRange.C for JobNum: 2  <1-6|1-6>
Symmetry turned off temporarily
Total number of integrals generated =           34875
Symmetry turned back on
 A cutoff of  1.0D-11 yielded    615 shell pairs
 There are      3255 function pairs
 Job number = 11, Threshold = 1.00E-11
Integral type ranges set in mkLRange.C for JobNum: 11  <1-6|7-7>
Total number of integrals generated =           45570
 Smallest overlap matrix eigenvalue = 5.00E-03
 Multipole matrices computed through 2nd order
 Guess MOs from SCF MO coefficient file
Reading MOs from coefficient file
Reading MOs from coefficient file
 A restricted hybrid HF-DFT SCF calculation will be
 performed using Pulay DIIS extrapolation
 Exchange:     0.2000 Hartree-Fock + 0.0800 Slater + 0.7200 Becke88
 Correlation:  0.8100 LYP + 0.1900 VWN1RPA
 Using SG-1 standard quadrature grid
 SCF converges when DIIS error is below 1.0E-08
Geometry optimization detected.  Setting ReadMinima to 0
Setting SaveMinima to 0
Finding J and K together
 Job number = 22, Threshold = 1.00E-11
Integral type ranges set in mkLRange.C for JobNum: 22  <1-6|1-6>
Storing 34.31% of integrals
Total number of integrals generated =         5235453
Target Grid is being used
 CPU 0.00 s  wall 0.00 s
NTotSigB2 = 369080
Total Number of Grid Points = 39332
 CPU 4.32 s  wall 4.64 s

 Total DFTman time = 4.32 CPUs 4.64 Wall
Fock build time:  5.97 s (CPU) 6.32 s (wall)
DIIS Errors:  Max 3.60E-02 RMS 2.61E-03

Current DIIS subspace size = 1
REM_GRID_RESTART_DIIS = 0

 ---------------------------------------
  Cycle       Energy         DIIS Error
 ---------------------------------------
    1    -721.7625776713      2.61E-03  00000
Finding J and K together
 Job number = 22, Threshold = 1.00E-11
Integral type ranges set in mkLRange.C for JobNum: 22  <1-6|1-6>
Storing 34.31% of integrals
Reusing in-core integrals buffer for job 22
Target Grid is being used
 CPU 0.00 s  wall 0.00 s
NTotSigB2 = 369080
Total Number of Grid Points = 39332
 CPU 2.58 s  wall 2.62 s

 Total DFTman time = 2.58 CPUs 2.62 Wall
Fock build time:  3.33 s (CPU) 3.39 s (wall)
DIIS Errors:  Max 3.28E-03 RMS 2.67E-04

Current DIIS subspace size = 2
REM_GRID_RESTART_DIIS = 0

    2    -721.7717648494      2.67E-04  00000
Finding J and K together
 Job number = 22, Threshold = 1.00E-11
Integral type ranges set in mkLRange.C for JobNum: 22  <1-6|1-6>
Storing 34.31% of integrals
Reusing in-core integrals buffer for job 22
Target Grid is being used
 CPU 0.00 s  wall 0.00 s
NTotSigB2 = 369080
Total Number of Grid Points = 39332
 CPU 2.54 s  wall 2.55 s

 Total DFTman time = 2.54 CPUs 2.55 Wall
Fock build time:  3.28 s (CPU) 3.30 s (wall)
DIIS Errors:  Max 4.49E-03 RMS 3.02E-04

Current DIIS subspace size = 3
REM_GRID_RESTART_DIIS = 0

    3    -721.7718003570      3.02E-04  00000
Finding J and K together
 Job number = 22, Threshold = 1.00E-11
Integral type ranges set in mkLRange.C for JobNum: 22  <1-6|1-6>
Storing 34.31% of integrals
Reusing in-core integrals buffer for job 22
Target Grid is being used
 CPU 0.00 s  wall 0.00 s
NTotSigB2 = 369080
Total Number of Grid Points = 39332
 CPU 2.53 s  wall 2.54 s

 Total DFTman time = 2.53 CPUs 2.54 Wall
Fock build time:  3.26 s (CPU) 3.30 s (wall)
DIIS Errors:  Max 2.88E-03 RMS 1.49E-04

Current DIIS subspace size = 4
REM_GRID_RESTART_DIIS = 0

    4    -721.7718606526      1.49E-04  00000
Finding J and K together
 Job number = 22, Threshold = 1.00E-11
Integral type ranges set in mkLRange.C for JobNum: 22  <1-6|1-6>
Storing 34.31% of integrals
Reusing in-core integrals buffer for job 22
Target Grid is being used
 CPU 0.00 s  wall 0.00 s
NTotSigB2 = 369080
Total Number of Grid Points = 39332
 CPU 2.53 s  wall 2.62 s

 Total DFTman time = 2.53 CPUs 2.62 Wall
Fock build time:  3.26 s (CPU) 3.38 s (wall)
DIIS Errors:  Max 4.73E-04 RMS 4.33E-05

Current DIIS subspace size = 5
REM_GRID_RESTART_DIIS = 0

    5    -721.7718736390      4.33E-05  00000
Finding J and K together
 Job number = 22, Threshold = 1.00E-11
Integral type ranges set in mkLRange.C for JobNum: 22  <1-6|1-6>
Storing 34.31% of integrals
Reusing in-core integrals buffer for job 22
Target Grid is being used
 CPU 0.00 s  wall 0.00 s
NTotSigB2 = 369080
Total Number of Grid Points = 39332
 CPU 2.46 s  wall 2.50 s

 Total DFTman time = 2.46 CPUs 2.50 Wall
Fock build time:  3.21 s (CPU) 3.27 s (wall)
DIIS Errors:  Max 1.60E-04 RMS 1.01E-05

Current DIIS subspace size = 6
REM_GRID_RESTART_DIIS = 0

    6    -721.7718751241      1.01E-05  00000
Finding J and K together
 Job number = 22, Threshold = 1.00E-11
Integral type ranges set in mkLRange.C for JobNum: 22  <1-6|1-6>
Storing 34.31% of integrals
Reusing in-core integrals buffer for job 22
Target Grid is being used
 CPU 0.00 s  wall 0.00 s
NTotSigB2 = 369080
Total Number of Grid Points = 39332
 CPU 2.39 s  wall 2.53 s

 Total DFTman time = 2.39 CPUs 2.53 Wall
Fock build time:  3.14 s (CPU) 3.31 s (wall)
DIIS Errors:  Max 4.53E-05 RMS 2.94E-06

Current DIIS subspace size = 7
REM_GRID_RESTART_DIIS = 0

    7    -721.7718751996      2.94E-06  00000
Finding J and K together
 Job number = 22, Threshold = 1.00E-11
Integral type ranges set in mkLRange.C for JobNum: 22  <1-6|1-6>
Storing 34.31% of integrals
Reusing in-core integrals buffer for job 22
Target Grid is being used
 CPU 0.00 s  wall 0.00 s
NTotSigB2 = 369080
Total Number of Grid Points = 39332
 CPU 2.33 s  wall 2.34 s

 Total DFTman time = 2.33 CPUs 2.34 Wall
Fock build time:  3.07 s (CPU) 3.10 s (wall)
DIIS Errors:  Max 7.53E-06 RMS 7.05E-07

Current DIIS subspace size = 8
REM_GRID_RESTART_DIIS = 0

    8    -721.7718752072      7.05E-07  00000
Finding J and K together
 Job number = 22, Threshold = 1.00E-11
Integral type ranges set in mkLRange.C for JobNum: 22  <1-6|1-6>
Storing 34.31% of integrals
Reusing in-core integrals buffer for job 22
Target Grid is being used
 CPU 0.00 s  wall 0.00 s
NTotSigB2 = 369080
Total Number of Grid Points = 39332
 CPU 2.23 s  wall 2.24 s

 Total DFTman time = 2.23 CPUs 2.24 Wall
Fock build time:  2.97 s (CPU) 2.99 s (wall)
DIIS Errors:  Max 3.75E-06 RMS 2.69E-07

Current DIIS subspace size = 9
REM_GRID_RESTART_DIIS = 0

    9    -721.7718752073      2.69E-07  00000
Finding J and K together
 Job number = 22, Threshold = 1.00E-11
Integral type ranges set in mkLRange.C for JobNum: 22  <1-6|1-6>
Storing 34.31% of integrals
Reusing in-core integrals buffer for job 22
Target Grid is being used
 CPU 0.00 s  wall 0.00 s
NTotSigB2 = 369080
Total Number of Grid Points = 39332
 CPU 2.12 s  wall 2.12 s

 Total DFTman time = 2.12 CPUs 2.12 Wall
Fock build time:  2.86 s (CPU) 2.88 s (wall)
DIIS Errors:  Max 1.40E-06 RMS 7.49E-08

Current DIIS subspace size = 10
REM_GRID_RESTART_DIIS = 0

   10    -721.7718752075      7.49E-08  00000
Finding J and K together
 Job number = 22, Threshold = 1.00E-11
Integral type ranges set in mkLRange.C for JobNum: 22  <1-6|1-6>
Storing 34.31% of integrals
Reusing in-core integrals buffer for job 22
Target Grid is being used
 CPU 0.00 s  wall 0.00 s
NTotSigB2 = 369080
Total Number of Grid Points = 39332
 CPU 1.95 s  wall 1.96 s

 Total DFTman time = 1.95 CPUs 1.96 Wall
Fock build time:  2.69 s (CPU) 2.71 s (wall)
DIIS Errors:  Max 3.05E-07 RMS 2.28E-08

Current DIIS subspace size = 11
REM_GRID_RESTART_DIIS = 0

   11    -721.7718752073      2.28E-08  00000
Finding J and K together
 Job number = 22, Threshold = 1.00E-11
Integral type ranges set in mkLRange.C for JobNum: 22  <1-6|1-6>
Storing 34.31% of integrals
Reusing in-core integrals buffer for job 22
Target Grid is being used
 CPU 0.00 s  wall 0.00 s
NTotSigB2 = 369080
Total Number of Grid Points = 39332
 CPU 1.73 s  wall 1.73 s

 Total DFTman time = 1.73 CPUs 1.73 Wall
Fock build time:  2.47 s (CPU) 2.48 s (wall)
DIIS Errors:  Max 6.43E-08 RMS 4.19E-09

Current DIIS subspace size = 12
REM_GRID_RESTART_DIIS = 0

   12    -721.7718752074      4.19E-09  00000 Convergence criterion met
 ---------------------------------------
 SCF time:  CPU 39.64 s  wall 40.55 s
 SCF   energy in the final basis set = -721.7718752074
 Total energy in the final basis set = -721.7718752074
Symmetry turned off temporarily
 Analysis of SCF Wavefunction

 --------------------------------------------------------------
                    Orbital Energies (a.u.)
 --------------------------------------------------------------

 Alpha MOs
 -- Occupied --
-88.863 -19.211 -19.159 -14.344 -10.344 -10.269 -10.239  -7.943
 -5.908  -5.903  -5.895  -1.124  -1.049  -0.927  -0.806  -0.732
 -0.656  -0.631  -0.557  -0.537  -0.490  -0.462  -0.447  -0.425
 -0.419  -0.394  -0.389  -0.337  -0.328  -0.298  -0.260  -0.240
 -- Virtual --
 -0.032   0.019   0.034   0.052   0.072   0.104   0.125   0.138
  0.154   0.178   0.203   0.238   0.327   0.334   0.368   0.373
  0.387   0.419   0.542   0.556   0.562   0.586   0.612   0.630
  0.659   0.717   0.732   0.757   0.774   0.801   0.841   0.879
  0.896   0.908   0.925   0.932   0.978   0.988   0.995   1.044
  1.062   1.093   1.174   1.212   1.403   1.451   1.510   1.763
  2.050
 --------------------------------------------------------------

          Ground-State Mulliken Net Atomic Charges

     Atom                 Charge (a.u.)
  ----------------------------------------
      1 H                     0.143616
      2 C                    -0.090912
      3 N                    -0.650595
      4 H                     0.305154
      5 H                     0.293946
      6 C                    -0.450442
      7 H                     0.200662
      8 C                     0.522046
      9 O                    -0.397293
     10 O                    -0.545260
     11 H                     0.381261
     12 S                     0.021621
     13 H                     0.186451
     14 H                     0.079745
  ----------------------------------------
  Sum of atomic charges =    -0.000000

 -----------------------------------------------------------------
                    Cartesian Multipole Moments
 -----------------------------------------------------------------
    Charge (ESU x 10^10)
                 0.0000
    Dipole Moment (Debye)
         X       0.0410      Y      -0.6884      Z      -3.3245
       Tot       3.3953
    Quadrupole Moments (Debye-Ang)
        XX     -67.5924     XY      -0.5068     YY     -46.3022
        XZ      -5.7747     YZ      -0.0267     ZZ     -46.0071
    Octapole Moments (Debye-Ang^2)
       XXX       3.6365    XXY     -10.8176    XYY      14.1355
       YYY      -5.5365    XXZ     -18.1737    XYZ      -2.8440
       YYZ      -0.8806    XZZ       4.8301    YZZ       2.5927
       ZZZ     -13.2471
    Hexadecapole Moments (Debye-Ang^3)
      XXXX   -1209.0765   XXXY       8.3783   XXYY    -227.5425
      XYYY      -7.5119   YYYY    -211.1708   XXXZ       2.9592
      XXYZ       9.7280   XYYZ     -13.5198   YYYZ      -3.5788
      XXZZ    -206.5425   XYZZ      10.5528   YYZZ     -55.1976
      XZZZ     -28.0479   YZZZ      -7.2698   ZZZZ    -157.9212
 -----------------------------------------------------------------
 Calculating analytic gradient of the SCF energy
 Job number = 111, Threshold = 1.00E-11
Integral type ranges set in mkLRange.C for JobNum: 11  <1-6|7-7>
Total number of integrals generated =           45570
Finding J and K together
 ML is being used
 Job number = 122, Threshold = 1.00E-11
Integral type ranges set in mkLRange.C for JobNum: 22  <1-6|1-6>
Total number of integrals generated =         4660109
 Gradient of Coulomb and Exchange Energy
            1           2           3           4           5           6
    1   0.8417695  -1.3743259   5.3465085  -0.8774830  -2.5370685  -0.3866845
    2  -1.3842294   0.5273702   8.2069018   2.8853651   2.9385612  -1.6226967
    3   4.6783206  -0.3248236   3.8439991  -4.3879309   3.4958144  -1.6907956
            7           8           9          10          11          12
    1   0.6123318   3.6661941 -12.6697593 -13.6053067   1.4960228  19.6325658
    2   1.7812310  -2.3577463   5.5378957  -7.3222807  -1.7691441  -5.6999329
    3  -4.7066872   9.1703613 -20.4134027   4.4245366   4.6284427  -1.5126733
           13          14
    1  -0.5368843   0.3921196
    2  -4.8373643   3.1160694
    3  -0.8980975   3.6929360
 CPU 0.00 s  wall 0.00 s
NTotSigB2 = 369080
Total Number of Grid Points = 39332
 CPU 7.34 s  wall 7.36 s

 Total DFTman time = 7.34 CPUs 7.36 Wall
 Gradient of SCF Energy
            1           2           3           4           5           6
    1  -0.0011461   0.0031226  -0.0025874   0.0010143   0.0015496  -0.0059793
    2  -0.0007782   0.0031756  -0.0029782   0.0001577   0.0002393  -0.0009984
    3  -0.0010948   0.0043794  -0.0003671  -0.0000626   0.0005898  -0.0046570
            7           8           9          10          11          12
    1  -0.0009759  -0.0008664   0.0001297  -0.0011501   0.0010588   0.0045974
    2   0.0004817  -0.0000228   0.0010810  -0.0005719  -0.0002051  -0.0044017
    3   0.0008775  -0.0033258   0.0010600  -0.0009994   0.0012284   0.0017097
           13          14
    1   0.0024717  -0.0012390
    2   0.0001222   0.0046989
    3   0.0012238  -0.0005618
 Max gradient component =       5.979E-03
 RMS gradient           =       2.270E-03
 Gradient time:  CPU 13.99 s  wall 14.04 s
 ------------------------------------------------------------------------------
                     drvman        : Timing summary (seconds)
 ------------------------------------------------------------------------------
     job step          cpu (% of tot)      sys (% of tot)     wall (% of tot)
 ------------------------------------------------------------------------------
 ------------------------------------------------------------------------------
   Grand Totals     0.1399E+02          0.5900E-04          0.1404E+02
 ------------------------------------------------------------------------------
 Geometry Optimization Parameters
   NAtoms,    NIC,     NZ,  NCons,   NDum,   NFix, NCnnct, MaxDiis
       14      87       0       0       0       0       0       0

 Cartesian Hessian Update
 Hessian Updated using BFGS Update
**WARNING** Hereditary positive definiteness endangered


** GEOMETRY OPTIMIZATION IN DELOCALIZED INTERNAL COORDINATES **
   Searching for a Minimum

   Optimization Cycle:   4

                       Coordinates (Angstroms)
     ATOM              X           Y           Z
      1  H         0.035883    0.126039   -1.373107
      2  C         0.210869   -0.237832   -0.350916
      3  N         0.018091   -1.693291   -0.372280
      4  H         0.164301   -2.116260    0.541004
      5  H         0.558044   -2.172750   -1.086431
      6  C        -0.809555    0.416990    0.593167
      7  H        -0.767426   -0.068279    1.571919
      8  C         1.625201    0.152073    0.110525
      9  O         2.093481   -0.193570    1.192122
     10  O         2.386320    0.916593   -0.752587
     11  H         1.924525    1.159036   -1.578423
     12  S        -2.588201    0.336572   -0.030785
     13  H        -0.566781    1.474034    0.735787
     14  H        -2.383558   -0.626097   -0.984882
   Point Group: c1    Number of degrees of freedom:    36


   Energy is   -721.771875207

 Hessian Updated using BFGS Update

 36 Hessian modes will be used to form the next step
  Hessian Eigenvalues:
     0.000288    0.004398    0.004888    0.005345    0.010828    0.022445
     0.038017    0.044928    0.052649    0.055282    0.057535    0.061457
     0.117574    0.139307    0.146157    0.160025    0.161751    0.167544
     0.171926    0.187142    0.210895    0.250089    0.269641    0.287747
     0.293615    0.307797    0.321653    0.325592    0.328669    0.346936
     0.403139    0.480009    0.536267    0.573820    0.682970    1.015555

 Minimum Search - Taking Simple RFO Step
 Searching for Lamda that Minimizes Along All modes
 Value Taken    Lamda =  -0.00743944
 Calculated Step too Large.  Step scaled by  0.314918
 Step Taken.  Stepsize is  0.300000

                             Maximum     Tolerance    Cnvgd?
         Gradient           0.003361      0.000300      NO
         Displacement       0.171462      0.001200      NO
         Energy change     -0.002377      0.000001      NO


 New Cartesian Coordinates Obtained by Inverse Iteration

 Displacement from previous Coordinates is:  0.521658
 ----------------------------------------------------
       Standard Nuclear Orientation (Angstroms)
    I     Atom         X            Y            Z
 ----------------------------------------------------
    1      H       0.057663     0.156051    -1.383316
    2      C       0.216698    -0.221242    -0.365817
    3      N      -0.003508    -1.667851    -0.399852
    4      H       0.117392    -2.106458     0.510190
    5      H       0.515140    -2.160540    -1.120884
    6      C      -0.800472     0.446064     0.573357
    7      H      -0.755268    -0.017780     1.561003
    8      C       1.633450     0.139440     0.120510
    9      O       2.090731    -0.254967     1.189793
   10      O       2.410106     0.919958    -0.715511
   11      H       1.950106     1.193647    -1.535102
   12      S      -2.583720     0.326328    -0.059983
   13      H      -0.574552     1.508880     0.682564
   14      H      -2.372572    -0.788271    -0.841838
 ----------------------------------------------------
 Molecular Point Group                 C1    NOp =  1
 Largest Abelian Subgroup              C1    NOp =  1
 Nuclear Repulsion Energy =   367.4357055821 hartrees
 There are       32 alpha and       32 beta electrons
 JobOver = FALSE
 Applying Cartesian multipole field
    Component          Value
    ---------          -----
     (2,0,0)        1.00000E-11
     (0,2,0)        2.00000E-11
     (0,0,2)       -3.00000E-11
 Nucleus-field energy     =     0.0000000078 hartrees
 Requested basis set is 6-31G
 There are 36 shells and 81 basis functions
 Job number = 2, Threshold = 1.00E-11
Integral type ranges set in mkLRange.C for JobNum: 2  <1-6|1-6>
Symmetry turned off temporarily
Total number of integrals generated =           34876
Symmetry turned back on
 A cutoff of  1.0D-11 yielded    616 shell pairs
 There are      3256 function pairs
 Job number = 11, Threshold = 1.00E-11
Integral type ranges set in mkLRange.C for JobNum: 11  <1-6|7-7>
Total number of integrals generated =           45584
 Smallest overlap matrix eigenvalue = 5.04E-03
 Multipole matrices computed through 2nd order
 Guess MOs from SCF MO coefficient file
Reading MOs from coefficient file
Reading MOs from coefficient file
 A restricted hybrid HF-DFT SCF calculation will be
 performed using Pulay DIIS extrapolation
 Exchange:     0.2000 Hartree-Fock + 0.0800 Slater + 0.7200 Becke88
 Correlation:  0.8100 LYP + 0.1900 VWN1RPA
 Using SG-1 standard quadrature grid
 SCF converges when DIIS error is below 1.0E-08
Geometry optimization detected.  Setting ReadMinima to 0
Setting SaveMinima to 0
Finding J and K together
 Job number = 22, Threshold = 1.00E-11
Integral type ranges set in mkLRange.C for JobNum: 22  <1-6|1-6>
Storing 34.29% of integrals
Total number of integrals generated =         5236489
Target Grid is being used
 CPU 0.00 s  wall 0.00 s
NTotSigB2 = 368914
Total Number of Grid Points = 39332
 CPU 4.24 s  wall 4.35 s

 Total DFTman time = 4.24 CPUs 4.35 Wall
Fock build time:  5.89 s (CPU) 6.04 s (wall)
DIIS Errors:  Max 4.10E-02 RMS 2.63E-03

Current DIIS subspace size = 1
REM_GRID_RESTART_DIIS = 0

 ---------------------------------------
  Cycle       Energy         DIIS Error
 ---------------------------------------
[...]
 Guess MOs from SCF MO coefficient file
Reading MOs from coefficient file
Reading MOs from coefficient file
 A restricted hybrid HF-DFT SCF calculation will be
 performed using Pulay DIIS extrapolation
 Exchange:     0.2000 Hartree-Fock + 0.0800 Slater + 0.7200 Becke88
 Correlation:  0.8100 LYP + 0.1900 VWN1RPA
 Using SG-1 standard quadrature grid
 SCF converges when DIIS error is below 1.0E-08
Geometry optimization detected.  Setting ReadMinima to 0
Setting SaveMinima to 0
Finding J and K together
 Job number = 22, Threshold = 1.00E-11
Integral type ranges set in mkLRange.C for JobNum: 22  <1-6|1-6>
Storing 34.31% of integrals
Total number of integrals generated =         5243629
Target Grid is being used
 CPU 0.00 s  wall 0.00 s
NTotSigB2 = 368676
Total Number of Grid Points = 39332
 CPU 4.24 s  wall 4.34 s

 Total DFTman time = 4.24 CPUs 4.34 Wall
Fock build time:  5.91 s (CPU) 6.11 s (wall)
DIIS Errors:  Max 1.77E-03 RMS 9.24E-05

Current DIIS subspace size = 1
REM_GRID_RESTART_DIIS = 0

 ---------------------------------------
  Cycle       Energy         DIIS Error
 ---------------------------------------
    1    -721.7790667375      9.24E-05  00000
Finding J and K together
 Job number = 22, Threshold = 1.00E-11
Integral type ranges set in mkLRange.C for JobNum: 22  <1-6|1-6>
Storing 34.31% of integrals
Reusing in-core integrals buffer for job 22
Target Grid is being used
 CPU 0.00 s  wall 0.00 s
NTotSigB2 = 368676
Total Number of Grid Points = 39332
 CPU 2.47 s  wall 2.48 s

 Total DFTman time = 2.47 CPUs 2.48 Wall
Fock build time:  3.23 s (CPU) 3.25 s (wall)
DIIS Errors:  Max 1.02E-04 RMS 9.41E-06

Current DIIS subspace size = 2
REM_GRID_RESTART_DIIS = 0

    2    -721.7792412456      9.41E-06  00000
Finding J and K together
 Job number = 22, Threshold = 1.00E-11
Integral type ranges set in mkLRange.C for JobNum: 22  <1-6|1-6>
Storing 34.31% of integrals
Reusing in-core integrals buffer for job 22
Target Grid is being used
 CPU 0.00 s  wall 0.00 s
NTotSigB2 = 368676
Total Number of Grid Points = 39332
 CPU 2.42 s  wall 2.42 s

 Total DFTman time = 2.42 CPUs 2.42 Wall
Fock build time:  3.17 s (CPU) 3.19 s (wall)
DIIS Errors:  Max 1.25E-04 RMS 8.43E-06

Current DIIS subspace size = 3
REM_GRID_RESTART_DIIS = 0

    3    -721.7792413166      8.43E-06  00000
Finding J and K together
 Job number = 22, Threshold = 1.00E-11
Integral type ranges set in mkLRange.C for JobNum: 22  <1-6|1-6>
Storing 34.31% of integrals
Reusing in-core integrals buffer for job 22
Target Grid is being used
 CPU 0.00 s  wall 0.00 s
NTotSigB2 = 368676
Total Number of Grid Points = 39332
 CPU 2.37 s  wall 2.38 s

 Total DFTman time = 2.37 CPUs 2.38 Wall
Fock build time:  3.13 s (CPU) 3.15 s (wall)
DIIS Errors:  Max 7.56E-05 RMS 4.10E-06

Current DIIS subspace size = 4
REM_GRID_RESTART_DIIS = 0

    4    -721.7792413613      4.10E-06  00000
Finding J and K together
 Job number = 22, Threshold = 1.00E-11
Integral type ranges set in mkLRange.C for JobNum: 22  <1-6|1-6>
Storing 34.31% of integrals
Reusing in-core integrals buffer for job 22
Target Grid is being used
 CPU 0.00 s  wall 0.00 s
NTotSigB2 = 368676
Total Number of Grid Points = 39332
 CPU 2.31 s  wall 2.31 s

 Total DFTman time = 2.31 CPUs 2.31 Wall
Fock build time:  3.07 s (CPU) 3.08 s (wall)
DIIS Errors:  Max 2.17E-05 RMS 1.59E-06

Current DIIS subspace size = 5
REM_GRID_RESTART_DIIS = 0

    5    -721.7792413708      1.59E-06  00000
Finding J and K together
 Job number = 22, Threshold = 1.00E-11
Integral type ranges set in mkLRange.C for JobNum: 22  <1-6|1-6>
Storing 34.31% of integrals
Reusing in-core integrals buffer for job 22
Target Grid is being used
 CPU 0.00 s  wall 0.00 s
NTotSigB2 = 368676
Total Number of Grid Points = 39332
 CPU 2.27 s  wall 2.28 s

 Total DFTman time = 2.27 CPUs 2.28 Wall
Fock build time:  3.03 s (CPU) 3.05 s (wall)
DIIS Errors:  Max 7.46E-06 RMS 4.15E-07

Current DIIS subspace size = 6
REM_GRID_RESTART_DIIS = 0

    6    -721.7792413725      4.15E-07  00000
Finding J and K together
 Job number = 22, Threshold = 1.00E-11
Integral type ranges set in mkLRange.C for JobNum: 22  <1-6|1-6>
Storing 34.31% of integrals
Reusing in-core integrals buffer for job 22
Target Grid is being used
 CPU 0.00 s  wall 0.00 s
NTotSigB2 = 368676
Total Number of Grid Points = 39332
 CPU 2.13 s  wall 2.18 s

 Total DFTman time = 2.13 CPUs 2.18 Wall
Fock build time:  2.89 s (CPU) 2.95 s (wall)
DIIS Errors:  Max 1.78E-06 RMS 1.37E-07

Current DIIS subspace size = 7
REM_GRID_RESTART_DIIS = 0

    7    -721.7792413728      1.37E-07  00000
Finding J and K together
 Job number = 22, Threshold = 1.00E-11
Integral type ranges set in mkLRange.C for JobNum: 22  <1-6|1-6>
Storing 34.31% of integrals
Reusing in-core integrals buffer for job 22
Target Grid is being used
 CPU 0.00 s  wall 0.00 s
NTotSigB2 = 368676
Total Number of Grid Points = 39332
 CPU 2.02 s  wall 2.02 s

 Total DFTman time = 2.02 CPUs 2.02 Wall
Fock build time:  2.78 s (CPU) 2.80 s (wall)
DIIS Errors:  Max 4.02E-07 RMS 3.07E-08

Current DIIS subspace size = 8
REM_GRID_RESTART_DIIS = 0

    8    -721.7792413726      3.07E-08  00000
Finding J and K together
 Job number = 22, Threshold = 1.00E-11
Integral type ranges set in mkLRange.C for JobNum: 22  <1-6|1-6>
Storing 34.31% of integrals
Reusing in-core integrals buffer for job 22
Target Grid is being used
 CPU 0.00 s  wall 0.00 s
NTotSigB2 = 368676
Total Number of Grid Points = 39332
 CPU 1.76 s  wall 1.76 s

 Total DFTman time = 1.76 CPUs 1.76 Wall
Fock build time:  2.51 s (CPU) 2.53 s (wall)
DIIS Errors:  Max 1.05E-07 RMS 7.77E-09

Current DIIS subspace size = 9
REM_GRID_RESTART_DIIS = 0

    9    -721.7792413729      7.77E-09  00000 Convergence criterion met
 ---------------------------------------
 SCF time:  CPU 29.83 s  wall 30.23 s
 SCF   energy in the final basis set = -721.7792413729
 Total energy in the final basis set = -721.7792413729
Symmetry turned off temporarily
 Analysis of SCF Wavefunction

 --------------------------------------------------------------
                    Orbital Energies (a.u.)
 --------------------------------------------------------------

 Alpha MOs
 -- Occupied --
-88.860 -19.211 -19.163 -14.340 -10.345 -10.267 -10.242  -7.940
 -5.904  -5.900  -5.892  -1.125  -1.051  -0.926  -0.804  -0.730
 -0.651  -0.630  -0.561  -0.537  -0.484  -0.467  -0.451  -0.433
 -0.402  -0.397  -0.390  -0.340  -0.331  -0.293  -0.261  -0.243
 -- Virtual --
 -0.032   0.018   0.041   0.058   0.078   0.102   0.132   0.139
  0.159   0.180   0.201   0.215   0.315   0.350   0.363   0.375
  0.392   0.430   0.524   0.538   0.574   0.581   0.611   0.646
  0.664   0.725   0.728   0.756   0.797   0.799   0.878   0.887
  0.895   0.916   0.926   0.943   0.961   0.981   1.006   1.055
  1.057   1.120   1.157   1.218   1.377   1.412   1.615   1.760
  1.968
 --------------------------------------------------------------

          Ground-State Mulliken Net Atomic Charges

     Atom                 Charge (a.u.)
  ----------------------------------------
      1 H                     0.170481
      2 C                    -0.096965
      3 N                    -0.664623
      4 H                     0.309574
      5 H                     0.303303
      6 C                    -0.454790
      7 H                     0.192921
      8 C                     0.518087
      9 O                    -0.387004
     10 O                    -0.544843
     11 H                     0.384719
     12 S                     0.008059
     13 H                     0.167418
     14 H                     0.093663
  ----------------------------------------
  Sum of atomic charges =    -0.000000

 -----------------------------------------------------------------
                    Cartesian Multipole Moments
 -----------------------------------------------------------------
    Charge (ESU x 10^10)
                -0.0000
    Dipole Moment (Debye)
         X      -0.4746      Y      -0.0946      Z      -2.0844
       Tot       2.1399
    Quadrupole Moments (Debye-Ang)
        XX     -69.1312     XY       3.4460     YY     -43.9596
        XZ      -5.7627     YZ       0.5707     ZZ     -47.4719
    Octapole Moments (Debye-Ang^2)
       XXX      -9.8180    XXY      -6.1607    XYY       4.8816
       YYY       3.5126    XXZ      -6.6663    XYZ      -1.0504
       YYZ      -3.0312    XZZ       7.2057    YZZ       0.5646
       ZZZ      10.3993
    Hexadecapole Moments (Debye-Ang^3)
      XXXX   -1177.8046   XXXY      49.9414   XXYY    -236.1922
      XYYY      19.7298   YYYY    -247.9379   XXXZ     -49.3521
      XXYZ      10.3306   XYYZ     -24.5160   YYYZ       1.6667
      XXZZ    -203.1663   XYZZ      15.5703   YYZZ     -56.8031
      XZZZ     -47.4557   YZZZ       6.1252   ZZZZ    -112.4896
 -----------------------------------------------------------------
 Calculating analytic gradient of the SCF energy
 Job number = 111, Threshold = 1.00E-11
Integral type ranges set in mkLRange.C for JobNum: 11  <1-6|7-7>
Total number of integrals generated =           45570
Finding J and K together
 ML is being used
 Job number = 122, Threshold = 1.00E-11
Integral type ranges set in mkLRange.C for JobNum: 22  <1-6|1-6>
Total number of integrals generated =         4691821
 Gradient of Coulomb and Exchange Energy
            1           2           3           4           5           6
    1   0.2741999  -1.2762816   6.4464119  -1.4841438  -1.2738121  -1.4117709
    2  -1.0859417   1.1931393   7.5716453   2.8610929   3.5001427  -1.7747069
    3   5.0932978   0.0069599   1.6972867  -4.3328126   3.9426456  -1.7888661
            7           8           9          10          11          12
    1   0.6034972   4.9163436 -15.9171711 -12.8051539   2.1689218  19.4728757
    2   0.7544120  -5.8577666  13.8655412 -10.0327009  -3.4707327  -7.1749925
    3  -4.9347193   6.7887299 -13.4580520   0.5736769   3.1787344   2.6278070
           13          14
    1  -0.3711915   0.6572749
    2  -4.8927156   4.5435835
    3   0.1530689   0.4522429
 CPU 0.00 s  wall 0.00 s
NTotSigB2 = 368676
Total Number of Grid Points = 39332
 CPU 7.29 s  wall 7.30 s

 Total DFTman time = 7.29 CPUs 7.30 Wall
 Gradient of SCF Energy
            1           2           3           4           5           6
    1   0.0000073  -0.0000494   0.0000394  -0.0000226  -0.0000365  -0.0000318
    2   0.0000018   0.0001267  -0.0001440   0.0000372   0.0000414  -0.0001082
    3  -0.0000305   0.0000830   0.0000375  -0.0000220   0.0000464  -0.0000895
            7           8           9          10          11          12
    1   0.0000197  -0.0000089  -0.0000058   0.0000041   0.0000098   0.0000649
    2   0.0000274  -0.0000851   0.0000460   0.0000286  -0.0000151  -0.0000045
    3   0.0000202  -0.0000500   0.0000091  -0.0000666   0.0000249   0.0000060
           13          14
    1   0.0000108  -0.0000011
    2   0.0000397   0.0000082
    3   0.0000015   0.0000299
 Max gradient component =       1.440E-04
 RMS gradient           =       5.003E-05
 Gradient time:  CPU 13.99 s  wall 14.04 s
 ------------------------------------------------------------------------------
                     drvman        : Timing summary (seconds)
 ------------------------------------------------------------------------------
     job step          cpu (% of tot)      sys (% of tot)     wall (% of tot)
 ------------------------------------------------------------------------------
 ------------------------------------------------------------------------------
   Grand Totals     0.1399E+02          0.5900E-04          0.1404E+02
 ------------------------------------------------------------------------------
 Geometry Optimization Parameters
   NAtoms,    NIC,     NZ,  NCons,   NDum,   NFix, NCnnct, MaxDiis
       14      87       0       0       0       0       0       0

 Cartesian Hessian Update
 Hessian Updated using BFGS Update


** GEOMETRY OPTIMIZATION IN DELOCALIZED INTERNAL COORDINATES **
   Searching for a Minimum

   Optimization Cycle:  17

                       Coordinates (Angstroms)
     ATOM              X           Y           Z
      1  H         0.188516   -0.046667   -1.502188
      2  C         0.262364   -0.315856   -0.440891
      3  N        -0.097228   -1.718423   -0.301398
      4  H         0.207445   -2.119697    0.581284
      5  H         0.173052   -2.303571   -1.082959
      6  C        -0.722590    0.575454    0.354321
      7  H        -0.693377    0.310405    1.414470
      8  C         1.695449   -0.030274    0.047576
      9  O         2.343352   -0.799451    0.748389
     10  O         2.230171    1.195385   -0.306454
     11  H         1.650639    1.722367   -0.893724
     12  S        -2.491791    0.369845   -0.285122
     13  H        -0.487322    1.637765    0.254331
     14  H        -2.357485   -1.004024   -0.372520
   Point Group: c1    Number of degrees of freedom:    36


   Energy is   -721.779241373

 Hessian Updated using BFGS Update

 36 Hessian modes will be used to form the next step
  Hessian Eigenvalues:
     0.001782    0.002816    0.005163    0.013045    0.020227    0.033371
     0.041018    0.047479    0.052457    0.057179    0.059814    0.063956
     0.118973    0.140701    0.150968    0.160229    0.164795    0.170095
     0.173863    0.175470    0.221014    0.253464    0.269236    0.282638
     0.292944    0.309949    0.321331    0.326517    0.328967    0.346560
     0.381761    0.480025    0.521819    0.570488    0.649358    1.010765

 Minimum Search - Taking Simple RFO Step
 Searching for Lamda that Minimizes Along All modes
 Value Taken    Lamda =   0.00000000
 Step Taken.  Stepsize is  0.005063

                             Maximum     Tolerance    Cnvgd?
         Gradient           0.000075      0.000300     YES
         Displacement       0.002481      0.001200      NO
         Energy change     -0.000001      0.000001     YES


                       Distance Matrix (Angstroms)
             H (  1)   C (  2)   N (  3)   H (  4)   H (  5)   C (  6)
   C (  2)  1.097391
   N (  3)  2.078055  1.454634
   H (  4)  2.939161  2.074054  1.016353
   H (  5)  2.295563  2.090751  1.013058  1.674722
   C (  6)  2.159577  1.548202  2.466357  2.860125  3.340169
   H (  7)  3.067920  2.178993  2.723186  2.722329  3.717623  1.093170
   C (  8)  2.161686  1.540743  2.487031  2.620055  2.960352  2.511555
   O (  9)  3.205479  2.445151  2.811227  2.516560  3.213474  3.383142
   O ( 10)  2.672233  2.484792  3.729222  3.983626  4.132481  3.088646
   H ( 11)  2.374345  2.507333  3.904475  4.361182  4.292697  2.916374
   S ( 12)  2.973008  2.842502  3.177272  3.772844  3.858119  1.892415
   H ( 13)  2.525753  2.204994  3.424180  3.835117  4.214092  1.092637
   H ( 14)  2.945301  2.709586  2.371536  2.955221  2.932091  2.386614
             H (  7)   C (  8)   O (  9)   O ( 10)   H ( 11)   S ( 12)
   C (  8)  2.773257
   O (  9)  3.301086  1.225785
   O ( 10)  3.505981  1.383295  2.259397
   H ( 11)  3.579917  1.989925  3.088033  0.979006
   S ( 12)  2.475164  4.219450  5.080748  4.793631  4.399935
   H ( 13)  1.774899  2.754921  3.767868  2.809795  2.428181  2.432391
   H ( 14)  2.773141  4.189384  4.836957  5.088060  4.875440  1.383182
             H ( 13)
   H ( 14)  3.296893

 Final energy is   -721.77924137289153     


 ******************************
 **  OPTIMIZATION CONVERGED  **
 ******************************

Z-matrix Print:
$molecule
0,1
1 S 
2 H  1 1.383182
3 C  1 1.892415 2 92.205877
4 H  3 1.092637 1 106.022399 2 -165.155364 0
5 H  3 1.093170 1 109.046263 2 78.104161 0
6 C  3 1.548202 1 111.018138 2 -43.208987 0
7 H  6 1.097391 3 108.222620 1 -57.591495 0
8 N  6 1.454634 3 110.400163 1 60.676252 0
9 H  8 1.013058 6 114.645062 3 -152.141973 0
10 H  8 1.016353 6 112.946036 3 79.048818 0
11 C  6 1.540743 3 108.795398 1 -175.760128 0
12 O  11 1.225785 6 123.819362 3 -106.588292 0
13 O  11 1.383295 6 116.272342 3 71.073890 0
14 H  13 0.979006 11 113.680694 6 4.394001 0
$end

Symmetry turned off temporarily
 Analysis of SCF Wavefunction

 --------------------------------------------------------------
                    Orbital Energies (a.u.)
 --------------------------------------------------------------

 Alpha MOs
 -- Occupied --
-88.860 -19.211 -19.163 -14.340 -10.345 -10.267 -10.242  -7.940
 -5.904  -5.900  -5.892  -1.125  -1.051  -0.926  -0.804  -0.730
 -0.651  -0.630  -0.561  -0.537  -0.484  -0.467  -0.451  -0.433
 -0.402  -0.397  -0.390  -0.340  -0.331  -0.293  -0.261  -0.243
 -- Virtual --
 -0.032   0.018   0.041   0.058   0.078   0.102   0.132   0.139
  0.159   0.180   0.201   0.215   0.315   0.350   0.363   0.375
  0.392   0.430   0.524   0.538   0.574   0.581   0.611   0.646
  0.664   0.725   0.728   0.756   0.797   0.799   0.878   0.887
  0.895   0.916   0.926   0.943   0.961   0.981   1.006   1.055
  1.057   1.120   1.157   1.218   1.377   1.412   1.615   1.760
  1.968
 --------------------------------------------------------------

          Ground-State Mulliken Net Atomic Charges

     Atom                 Charge (a.u.)
  ----------------------------------------
      1 H                     0.170481
      2 C                    -0.096965
      3 N                    -0.664623
      4 H                     0.309574
      5 H                     0.303303
      6 C                    -0.454790
      7 H                     0.192921
      8 C                     0.518087
      9 O                    -0.387004
     10 O                    -0.544843
     11 H                     0.384719
     12 S                     0.008059
     13 H                     0.167418
     14 H                     0.093663
  ----------------------------------------
  Sum of atomic charges =    -0.000000

 -----------------------------------------------------------------
                    Cartesian Multipole Moments
 -----------------------------------------------------------------
    Charge (ESU x 10^10)
                -0.0000
    Dipole Moment (Debye)
         X      -0.4746      Y      -0.0946      Z      -2.0844
       Tot       2.1399
    Quadrupole Moments (Debye-Ang)
        XX     -69.1312     XY       3.4460     YY     -43.9596
        XZ      -5.7627     YZ       0.5707     ZZ     -47.4719
    Octapole Moments (Debye-Ang^2)
       XXX      -9.8180    XXY      -6.1607    XYY       4.8816
       YYY       3.5126    XXZ      -6.6663    XYZ      -1.0504
       YYZ      -3.0312    XZZ       7.2057    YZZ       0.5646
       ZZZ      10.3993
    Hexadecapole Moments (Debye-Ang^3)
      XXXX   -1177.8046   XXXY      49.9414   XXYY    -236.1922
      XYYY      19.7298   YYYY    -247.9379   XXXZ     -49.3521
      XXYZ      10.3306   XYYZ     -24.5160   YYYZ       1.6667
      XXZZ    -203.1663   XYZZ      15.5703   YYZZ     -56.8031
      XZZZ     -47.4557   YZZZ       6.1252   ZZZZ    -112.4896
 -----------------------------------------------------------------
 JobOver = TRUE
Archival summary:
1\1\aitkin.anu.edu.au\OPT\ProcedureUnspecified\6-31G\12137\MonFeb611:05:572012MonFeb611:05:572012\0\\#,OPT,ProcedureUnspecified,6-31G,\\0,1\S\H,1,1.38318\C,1,1.89242,2,92.2059\H,3,1.09264,1,106.022,2,-165.155,0\H,3,1.09317,1,109.046,2,78.1042,0\C,3,1.5482,1,111.018,2,-43.209,0\H,6,1.09739,3,108.223,1,-57.5915,0\N,6,1.45463,3,110.4,1,60.6763,0\H,8,1.01306,6,114.645,3,-152.142,0\H,8,1.01635,6,112.946,3,79.0488,0\C,6,1.54074,3,108.795,1,-175.76,0\O,11,1.22579,6,123.819,3,-106.588,0\O,11,1.3833,6,116.272,3,71.0739,0\H,13,0.979006,11,113.681,6,4.394,0\\\@

 Total job time:  918.10s(wall), 896.79s(cpu) 
 Mon Feb  6 11:05:57 2012

        *************************************************************
        *                                                           *
        *  Thank you very much for using Q-Chem.  Have a nice day.  *
        *                                                           *
        *************************************************************


*** MISSION COMPLETED -- STARFLEET OUT ***

