Jobname.Temp
SP        R                             6-31G(d)            
Number of atoms                            I                8
Charge                                     I                0
Multiplicity                               I                1
Number of electrons                        I               30
Number of alpha electrons                  I               15
Number of beta electrons                   I               15
Atomic numbers                             I   N=           8
           6           6           6           8           1           1
           1           1
Current cartesian coordinates              R   N=          24
  3.43717332E+00 -1.01188610E+00  4.63159652E-02  1.30765488E+00  1.48816894E+00
 -4.62420796E-01 -1.48367138E+00  5.43795944E-01  1.10104877E+00 -3.43662155E+00
 -8.26248390E-01 -7.55809604E-01  5.24097851E+00 -9.21313811E-01 -6.89450974E-01
  2.88304566E+00 -2.56958031E+00  1.08062796E+00  1.62001904E+00  3.13848099E+00
 -1.45346512E+00 -1.81801170E+00  8.41927500E-01  2.99910133E+00
Nuclear charges                            R   N=           8
  6.00000000E+00  6.00000000E+00  6.00000000E+00  8.00000000E+00  1.00000000E+00
  1.00000000E+00  1.00000000E+00  1.00000000E+00
Number of basis functions                  I               68
Number of contracted shells                I               24
Number of primitive shells                 I               60
Highest angular momentum                   I                2
Largest degree of contraction              I                6
Shell types                                I   N=          24
           0          -1          -1           2           0          -1
          -1           2           0          -1          -1           2
           0          -1          -1           2           0           0
           0           0           0           0           0           0
Number of primitives per shell             I   N=          24
           6           3           1           1           6           3
           1           1           6           3           1           1
           6           3           1           1           3           1
           3           1           3           1           3           1
Shell to atom map                          I   N=          24
           1           1           1           1           2           2
           2           2           3           3           3           3
           4           4           4           4           5           5
           6           6           7           7           8           8
Primitive exponents                        R   N=          60
  3.04752490E+03  4.57369510E+02  1.03948690E+02  2.92101550E+01  9.28666300E+00
  3.16392700E+00  7.86827240E+00  1.88128850E+00  5.44249300E-01  1.68714400E-01
  8.00000000E-01  3.04752490E+03  4.57369510E+02  1.03948690E+02  2.92101550E+01
  9.28666300E+00  3.16392700E+00  7.86827240E+00  1.88128850E+00  5.44249300E-01
  1.68714400E-01  8.00000000E-01  3.04752490E+03  4.57369510E+02  1.03948690E+02
  2.92101550E+01  9.28666300E+00  3.16392700E+00  7.86827240E+00  1.88128850E+00
  5.44249300E-01  1.68714400E-01  8.00000000E-01  5.48467170E+03  8.25234950E+02
  1.88046960E+02  5.29645000E+01  1.68975700E+01  5.79963530E+00  1.55396160E+01
  3.59993360E+00  1.01376180E+00  2.70005800E-01  8.00000000E-01  1.87311370E+01
  2.82539370E+00  6.40121700E-01  1.61277800E-01  1.87311370E+01  2.82539370E+00
  6.40121700E-01  1.61277800E-01  1.87311370E+01  2.82539370E+00  6.40121700E-01
  1.61277800E-01  1.87311370E+01  2.82539370E+00  6.40121700E-01  1.61277800E-01
Contraction coefficients                   R   N=          60
  1.83470016E-03  1.40373012E-02  6.88426061E-02  2.32184421E-01  4.67941342E-01
  3.62312032E-01 -1.19332409E-01 -1.60854212E-01  1.14345648E+00  1.00000000E+00
  1.00000000E+00  1.83470016E-03  1.40373012E-02  6.88426061E-02  2.32184421E-01
  4.67941342E-01  3.62312032E-01 -1.19332409E-01 -1.60854212E-01  1.14345648E+00
  1.00000000E+00  1.00000000E+00  1.83470016E-03  1.40373012E-02  6.88426061E-02
  2.32184421E-01  4.67941342E-01  3.62312032E-01 -1.19332409E-01 -1.60854212E-01
  1.14345648E+00  1.00000000E+00  1.00000000E+00  1.83109981E-03  1.39500985E-02
  6.84450927E-02  2.32714275E-01  4.70192950E-01  3.58520862E-01 -1.10777504E-01
 -1.48026305E-01  1.13076704E+00  1.00000000E+00  1.00000000E+00  3.34945995E-02
  2.34726947E-01  8.13757318E-01  1.00000000E+00  3.34945995E-02  2.34726947E-01
  8.13757318E-01  1.00000000E+00  3.34945995E-02  2.34726947E-01  8.13757318E-01
  1.00000000E+00  3.34945995E-02  2.34726947E-01  8.13757318E-01  1.00000000E+00
P(S=P) Contraction coefficients            R   N=          60
  0.00000000E+00  0.00000000E+00  0.00000000E+00  0.00000000E+00  0.00000000E+00
  0.00000000E+00  6.89990956E-02  3.16423980E-01  7.44308252E-01  1.00000000E+00
  0.00000000E+00  0.00000000E+00  0.00000000E+00  0.00000000E+00  0.00000000E+00
  0.00000000E+00  0.00000000E+00  6.89990956E-02  3.16423980E-01  7.44308252E-01
  1.00000000E+00  0.00000000E+00  0.00000000E+00  0.00000000E+00  0.00000000E+00
  0.00000000E+00  0.00000000E+00  0.00000000E+00  6.89990956E-02  3.16423980E-01
  7.44308252E-01  1.00000000E+00  0.00000000E+00  0.00000000E+00  0.00000000E+00
  0.00000000E+00  0.00000000E+00  0.00000000E+00  0.00000000E+00  7.08742995E-02
  3.39752798E-01  7.27158595E-01  1.00000000E+00  0.00000000E+00  0.00000000E+00
  0.00000000E+00  0.00000000E+00  0.00000000E+00  0.00000000E+00  0.00000000E+00
  0.00000000E+00  0.00000000E+00  0.00000000E+00  0.00000000E+00  0.00000000E+00
  0.00000000E+00  0.00000000E+00  0.00000000E+00  0.00000000E+00  0.00000000E+00
Coordinates of each shell                  R   N=          72
  3.43717332E+00 -1.01188610E+00  4.63159652E-02  3.43717332E+00 -1.01188610E+00
  4.63159652E-02  3.43717332E+00 -1.01188610E+00  4.63159652E-02  3.43717332E+00
 -1.01188610E+00  4.63159652E-02  1.30765488E+00  1.48816894E+00 -4.62420796E-01
  1.30765488E+00  1.48816894E+00 -4.62420796E-01  1.30765488E+00  1.48816894E+00
 -4.62420796E-01  1.30765488E+00  1.48816894E+00 -4.62420796E-01 -1.48367138E+00
  5.43795944E-01  1.10104877E+00 -1.48367138E+00  5.43795944E-01  1.10104877E+00
 -1.48367138E+00  5.43795944E-01  1.10104877E+00 -1.48367138E+00  5.43795944E-01
  1.10104877E+00 -3.43662155E+00 -8.26248390E-01 -7.55809604E-01 -3.43662155E+00
 -8.26248390E-01 -7.55809604E-01 -3.43662155E+00 -8.26248390E-01 -7.55809604E-01
 -3.43662155E+00 -8.26248390E-01 -7.55809604E-01  5.24097851E+00 -9.21313811E-01
 -6.89450974E-01  5.24097851E+00 -9.21313811E-01 -6.89450974E-01  2.88304566E+00
 -2.56958031E+00  1.08062796E+00  2.88304566E+00 -2.56958031E+00  1.08062796E+00
  1.62001904E+00  3.13848099E+00 -1.45346512E+00  1.62001904E+00  3.13848099E+00
 -1.45346512E+00 -1.81801170E+00  8.41927500E-01  2.99910133E+00 -1.81801170E+00
  8.41927500E-01  2.99910133E+00
Overlap Matrix                             R   N=        2346
  1.00000000E+00  2.19058872E-01  1.00000000E+00  0.00000000E+00  0.00000000E+00
  1.00000000E+00  0.00000000E+00  0.00000000E+00  0.00000000E+00  1.00000000E+00
  0.00000000E+00  0.00000000E+00  0.00000000E+00  0.00000000E+00  1.00000000E+00
  1.84261053E-01  8.12273068E-01  0.00000000E+00  0.00000000E+00  0.00000000E+00
  1.00000000E+00  0.00000000E+00  0.00000000E+00  5.69754058E-01  0.00000000E+00
  0.00000000E+00  0.00000000E+00  1.00000000E+00  0.00000000E+00  0.00000000E+00
  0.00000000E+00  5.69754058E-01  0.00000000E+00  0.00000000E+00  0.00000000E+00
  1.00000000E+00  0.00000000E+00  0.00000000E+00  0.00000000E+00  0.00000000E+00
  5.69754058E-01  0.00000000E+00  0.00000000E+00  0.00000000E+00  1.00000000E+00
  7.91027073E-02  7.10235064E-01  0.00000000E+00  0.00000000E+00  0.00000000E+00
  6.29936196E-01  0.00000000E+00  0.00000000E+00  0.00000000E+00  1.00000000E+00
  7.91027073E-02  7.10235064E-01  0.00000000E+00  0.00000000E+00  0.00000000E+00
  6.29936196E-01  0.00000000E+00  0.00000000E+00  0.00000000E+00  3.33333333E-01
  1.00000000E+00  7.91027073E-02  7.10235064E-01  0.00000000E+00  0.00000000E+00
  0.00000000E+00  6.29936196E-01  0.00000000E+00  0.00000000E+00  0.00000000E+00
  3.33333333E-01  3.33333333E-01  1.00000000E+00  0.00000000E+00  0.00000000E+00
  0.00000000E+00  0.00000000E+00  0.00000000E+00  0.00000000E+00  0.00000000E+00
  0.00000000E+00  0.00000000E+00  0.00000000E+00  0.00000000E+00  0.00000000E+00
  1.00000000E+00  0.00000000E+00  0.00000000E+00  0.00000000E+00  0.00000000E+00
  0.00000000E+00  0.00000000E+00  0.00000000E+00  0.00000000E+00  0.00000000E+00
  0.00000000E+00  0.00000000E+00  0.00000000E+00  0.00000000E+00  1.00000000E+00
  0.00000000E+00  0.00000000E+00  0.00000000E+00  0.00000000E+00  0.00000000E+00
  0.00000000E+00  0.00000000E+00  0.00000000E+00  0.00000000E+00  0.00000000E+00
  0.00000000E+00  0.00000000E+00  0.00000000E+00  0.00000000E+00  1.00000000E+00
  0.00000000E+00  2.14018164E-03 -3.87155555E-03  4.54520694E-03 -9.24905179E-04
  3.05631937E-02 -5.15371474E-02  6.05046207E-02 -1.23120988E-02  1.71794170E-03
  2.34593176E-03  1.52553764E-04 -3.37576546E-03  6.86935272E-04 -8.06462138E-04
  1.00000000E+00  2.14018164E-03  6.17616863E-02 -6.72745501E-02  7.89803344E-02
 -1.60717260E-02  2.01289065E-01 -2.64489179E-01  3.10510345E-01 -6.31858199E-02
  6.26742177E-02  7.83372013E-02  2.36311698E-02 -8.41964916E-02  1.71331630E-02
 -2.01143365E-02  2.19058872E-01  1.00000000E+00  3.87155555E-03  6.72745501E-02
 -4.85331049E-02  9.25867200E-02 -1.88404924E-02  1.16230328E-01 -2.55247575E-02
  1.85968064E-01 -3.78426832E-02  4.54481339E-02  1.03670525E-01  2.95499680E-02
 -7.64576035E-02  1.55583749E-02 -2.72526774E-02  0.00000000E+00  0.00000000E+00
  1.00000000E+00 -4.54520694E-03 -7.89803344E-02  9.25867200E-02 -7.83656171E-02
  2.21187416E-02 -1.36454427E-01  1.85968064E-01 -8.54458189E-02  4.44273171E-02
 -9.67950630E-02 -7.82702705E-02 -3.46916680E-02  1.01882592E-01 -2.72526774E-02
  2.43395028E-02  0.00000000E+00  0.00000000E+00  0.00000000E+00  1.00000000E+00
  9.24905179E-04  1.60717260E-02 -1.88404924E-02  2.21187416E-02  2.58302618E-02
  2.77671420E-02 -3.78426832E-02  4.44273171E-02  1.23840199E-01  1.96968491E-02
  2.47666356E-02 -1.77998542E-03 -2.72526774E-02 -2.64979787E-02  3.11086320E-02
  0.00000000E+00  0.00000000E+00  0.00000000E+00  0.00000000E+00  1.00000000E+00
  3.05631937E-02  2.01289065E-01 -1.16230328E-01  1.36454427E-01 -2.77671420E-02
  3.93908903E-01 -3.44550811E-01  4.04502717E-01 -8.23123486E-02  1.71249199E-01
  1.84880368E-01  1.37270844E-01 -7.32744602E-02  1.49106364E-02 -1.75050899E-02
  1.84261053E-01  8.12273068E-01  0.00000000E+00  0.00000000E+00  0.00000000E+00
  1.00000000E+00  5.15371474E-02  2.64489179E-01 -2.55247575E-02  1.85968064E-01
 -3.78426832E-02  3.44550811E-01  9.25314514E-02  3.53817185E-01 -7.19983383E-02
  1.65011871E-01  2.67099149E-01  1.98317030E-01 -2.20893166E-02  4.49495999E-03
 -2.52898382E-02  0.00000000E+00  0.00000000E+00  5.69754058E-01  0.00000000E+00
  0.00000000E+00  0.00000000E+00  1.00000000E+00 -6.05046207E-02 -3.10510345E-01
  1.85968064E-01 -8.54458189E-02  4.44273171E-02 -4.04502717E-01  3.53817185E-01
 -2.14725381E-02  8.45260626E-02 -2.90454708E-01 -2.16843710E-01 -2.32824231E-01
  5.29249370E-02 -2.52898382E-02  1.26436384E-02  0.00000000E+00  0.00000000E+00
  0.00000000E+00  5.69754058E-01  0.00000000E+00  0.00000000E+00  0.00000000E+00
  1.00000000E+00  1.23120988E-02  6.31858199E-02 -3.78426832E-02  4.44273171E-02
  1.23840199E-01  8.23123486E-02 -7.19983383E-02  8.45260626E-02  3.76708675E-01
  5.91046938E-02  6.38093354E-02  2.76936947E-02 -2.52898382E-02 -6.62091876E-02
  7.77295987E-02  0.00000000E+00  0.00000000E+00  0.00000000E+00  0.00000000E+00
  5.69754058E-01  0.00000000E+00  0.00000000E+00  0.00000000E+00  1.00000000E+00
  1.71794170E-03  6.26742177E-02 -4.54481339E-02  9.67950630E-02 -1.96968491E-02
  1.71249199E-01 -1.65011871E-01  2.90454708E-01 -5.91046938E-02  3.58113573E-02
  1.11660497E-01  2.24624852E-02 -7.79538071E-02  1.58628377E-02 -3.27963625E-02
  7.91027073E-02  7.10235064E-01  0.00000000E+00  0.00000000E+00  0.00000000E+00
  6.29936196E-01  0.00000000E+00  0.00000000E+00  0.00000000E+00  1.00000000E+00
  2.34593176E-03  7.83372013E-02 -1.03670525E-01  7.82702705E-02 -2.47666356E-02
  1.84880368E-01 -2.67099149E-01  2.16843710E-01 -6.38093354E-02  1.11660497E-01
  7.23877998E-02  2.91234616E-02 -1.18663146E-01  3.62195209E-02 -2.83483363E-02
  7.91027073E-02  7.10235064E-01  0.00000000E+00  0.00000000E+00  0.00000000E+00
  6.29936196E-01  0.00000000E+00  0.00000000E+00  0.00000000E+00  3.33333333E-01
  1.00000000E+00  1.52553764E-04  2.36311698E-02 -2.95499680E-02  3.46916680E-02
  1.77998542E-03  1.37270844E-01 -1.98317030E-01  2.32824231E-01 -2.76936947E-02
  2.24624852E-02  2.91234616E-02  1.05706768E-02 -3.58061309E-02 -4.78653302E-03
  5.61939066E-03  7.91027073E-02  7.10235064E-01  0.00000000E+00  0.00000000E+00
  0.00000000E+00  6.29936196E-01  0.00000000E+00  0.00000000E+00  0.00000000E+00
  3.33333333E-01  3.33333333E-01  1.00000000E+00 -3.37576546E-03 -8.41964916E-02
  7.64576035E-02 -1.01882592E-01  2.72526774E-02 -7.32744602E-02  2.20893166E-02
 -5.29249370E-02  2.52898382E-02 -7.79538071E-02 -1.18663146E-01 -3.58061309E-02
  1.26812157E-01 -3.22559379E-02  4.18234676E-02  0.00000000E+00  0.00000000E+00
  0.00000000E+00  0.00000000E+00  0.00000000E+00  0.00000000E+00  0.00000000E+00
  0.00000000E+00  0.00000000E+00  0.00000000E+00  0.00000000E+00  0.00000000E+00
  1.00000000E+00  6.86935272E-04  1.71331630E-02 -1.55583749E-02  2.72526774E-02
  2.64979787E-02  1.49106364E-02 -4.49495999E-03  2.52898382E-02  6.62091876E-02
  1.58628377E-02  3.62195209E-02 -4.78653302E-03 -3.22559379E-02 -2.51375264E-02
  4.07416052E-02  0.00000000E+00  0.00000000E+00  0.00000000E+00  0.00000000E+00
  0.00000000E+00  0.00000000E+00  0.00000000E+00  0.00000000E+00  0.00000000E+00
  0.00000000E+00  0.00000000E+00  0.00000000E+00  0.00000000E+00  1.00000000E+00
 -8.06462138E-04 -2.01143365E-02  2.72526774E-02 -2.43395028E-02 -3.11086320E-02
 -1.75050899E-02  2.52898382E-02 -1.26436384E-02 -7.77295987E-02 -3.27963625E-02
 -2.83483363E-02  5.61939066E-03  4.18234676E-02  4.07416052E-02 -3.82649429E-02
  0.00000000E+00  0.00000000E+00  0.00000000E+00  0.00000000E+00  0.00000000E+00
  0.00000000E+00  0.00000000E+00  0.00000000E+00  0.00000000E+00  0.00000000E+00
  0.00000000E+00  0.00000000E+00  0.00000000E+00  0.00000000E+00  1.00000000E+00
  0.00000000E+00  7.45837064E-07 -3.06220318E-06  9.68088772E-07  6.56351978E-07
  2.02311060E-03 -7.87608640E-03  2.48995587E-03  1.68815868E-03  1.51200896E-07
  1.62155161E-08  8.11632288E-09 -8.21220222E-08 -5.56776954E-08  1.76020167E-08
  0.00000000E+00  2.05555839E-03 -4.87347665E-03 -1.64881469E-03  2.72971759E-03
  3.01492970E-02 -6.66386293E-02 -2.25454556E-02  3.73254356E-02  2.75191830E-03
  3.63477916E-04  9.00936813E-04  1.58052505E-03 -2.61665975E-03 -8.85279105E-04
  1.00000000E+00  7.45837064E-07  6.85018865E-04 -1.62683096E-03  5.14308388E-04
  3.48694600E-04  2.40612509E-02 -7.35293183E-02  2.32456513E-02  1.57602584E-02
  1.11447940E-03  1.97365057E-04  1.42337718E-04 -5.57951418E-04 -3.78284025E-04
  1.19591188E-04  2.05555839E-03  6.04073708E-02 -8.61784318E-02 -2.91562420E-02
  4.82700131E-02  1.99161701E-01 -3.43037038E-01 -1.16057704E-01  1.92140910E-01
  8.99813228E-02  2.86303316E-02  4.24358410E-02  4.05983667E-02 -6.72131782E-02
 -2.27398393E-02  2.19058872E-01  1.00000000E+00  3.06220318E-06  1.62683096E-03
 -3.59506442E-03  1.22940350E-03  8.33520068E-04  3.01314543E-02 -7.93460654E-02
  2.97974359E-02  2.02022857E-02  2.77452318E-03  5.55776559E-04  4.00695717E-04
 -1.47226542E-03 -9.98177390E-04  3.37037962E-04  4.87347665E-03  8.61784318E-02
 -1.02592867E-01 -4.47277808E-02  7.40496859E-02  1.50682509E-01 -1.37744689E-01
 -9.10664117E-02  1.50766237E-01  1.09222581E-01  4.76565228E-02  7.21225074E-02
  5.81303962E-02 -9.62385682E-02 -4.02993141E-02  0.00000000E+00  0.00000000E+00
  1.00000000E+00 -9.68088772E-07 -5.14308388E-04  1.22940350E-03 -9.49505663E-05
 -2.63510084E-04 -9.52579592E-03  2.97974359E-02  5.48728533E-03 -6.38677606E-03
 -9.92821012E-04 -6.00241427E-05 -1.26676449E-04  1.80226632E-04  3.37037962E-04
 -3.86297379E-05  1.64881469E-03  2.91562420E-02 -4.47277808E-02  1.44785842E-02
  2.50527948E-02  5.09795273E-02 -9.10664117E-02  1.00614486E-01  5.10078542E-02
  5.29078468E-02  1.68137784E-04  2.44007838E-02 -1.64996194E-02 -4.02993141E-02
  9.24171892E-03  0.00000000E+00  0.00000000E+00  0.00000000E+00  1.00000000E+00
 -6.56351978E-07 -3.48694600E-04  8.33520068E-04 -2.63510084E-04  1.15058091E-04
 -6.45836950E-03  2.02022857E-02 -6.38677606E-03  1.05773306E-02 -6.73120125E-04
 -1.19125029E-04 -7.45561703E-06  3.37037962E-04 -8.83812662E-05  2.79409648E-05
 -2.72971759E-03 -4.82700131E-02  7.40496859E-02  2.50527948E-02 -1.18654239E-02
 -8.43998498E-02  1.50766237E-01  5.10078542E-02  4.69777025E-02 -8.75923054E-02
 -2.66932333E-02 -1.39821791E-02 -4.02993141E-02  2.58767090E-02  8.75471477E-03
  0.00000000E+00  0.00000000E+00  0.00000000E+00  0.00000000E+00  1.00000000E+00
  2.02311060E-03  2.40612509E-02 -3.01314543E-02  9.52579592E-03  6.45836950E-03
  9.62615551E-02 -1.94566743E-01  6.15105751E-02  4.17033942E-02  3.19634419E-02
  1.50676216E-02  1.40538636E-02 -1.02790311E-02 -6.96905346E-03  2.20320534E-03
  3.01492970E-02  1.99161701E-01 -1.50682509E-01 -5.09795273E-02  8.43998498E-02
  3.91132719E-01 -4.48446692E-01 -1.51720332E-01  2.51182659E-01  1.94837897E-01
  1.40648356E-01  1.52842360E-01  3.58593534E-02 -5.93674403E-02 -2.00854370E-02
  1.84261053E-01  8.12273068E-01  0.00000000E+00  0.00000000E+00  0.00000000E+00
  1.00000000E+00  7.87608640E-03  7.35293183E-02 -7.93460654E-02  2.97974359E-02
  2.02022857E-02  1.94566743E-01 -2.97002581E-01  1.24327020E-01  8.42921513E-02
  8.81323241E-02  5.03019323E-02  4.69175901E-02 -2.92301105E-02 -1.98176463E-02
  7.35520763E-03  6.66386293E-02  3.43037038E-01 -1.37744689E-01 -9.10664117E-02
  1.50766237E-01  4.48446692E-01 -1.23026352E-01 -1.73952415E-01  2.87989287E-01
  2.62218151E-01  2.66345623E-01  2.89437393E-01  3.66304854E-02 -6.06440984E-02
 -3.80357680E-02  0.00000000E+00  0.00000000E+00  5.69754058E-01  0.00000000E+00
  0.00000000E+00  0.00000000E+00  1.00000000E+00 -2.48995587E-03 -2.32456513E-02
  2.97974359E-02  5.48728533E-03 -6.38677606E-03 -6.15105751E-02  1.24327020E-01
  5.69566546E-02 -2.66482269E-02 -3.37345312E-02 -1.00302490E-02 -1.48325860E-02
 -5.23767613E-03  7.35520763E-03  1.12264239E-03  2.25454556E-02  1.16057704E-01
 -9.10664117E-02  1.00614486E-01  5.10078542E-02  1.51720332E-01 -1.73952415E-01
  3.32280421E-01  9.74337218E-02  1.24829519E-01  5.39963540E-02  9.79236512E-02
 -6.94703569E-02 -3.80357680E-02  3.89115347E-02  0.00000000E+00  0.00000000E+00
  0.00000000E+00  5.69754058E-01  0.00000000E+00  0.00000000E+00  0.00000000E+00
  1.00000000E+00 -1.68815868E-03 -1.57602584E-02  2.02022857E-02 -6.38677606E-03
  1.05773306E-02 -4.17033942E-02  8.42921513E-02 -2.66482269E-02  7.81943934E-02
 -2.28715867E-02 -1.07817054E-02 -6.07498311E-03  7.35520763E-03 -1.10995287E-02
  3.50901900E-03 -3.73254356E-02 -1.92140910E-01  1.50766237E-01  5.10078542E-02
  4.69777025E-02 -2.51182659E-01  2.87989287E-01  9.74337218E-02  2.29824995E-01
 -2.06663209E-01 -1.49184737E-01 -1.02328494E-01 -3.80357680E-02 -2.94742372E-02
 -9.97184534E-03  0.00000000E+00  0.00000000E+00  0.00000000E+00  0.00000000E+00
  5.69754058E-01  0.00000000E+00  0.00000000E+00  0.00000000E+00  1.00000000E+00
  1.51200896E-07  1.11447940E-03 -2.77452318E-03  9.92821012E-04  6.73120125E-04
  3.19634419E-02 -8.81323241E-02  3.37345312E-02  2.28715867E-02  1.71215595E-03
  3.01632164E-04  1.94159630E-04 -9.82737652E-04 -6.66283734E-04  2.33570588E-04
  2.75191830E-03  8.99813228E-02 -1.09222581E-01 -5.29078468E-02  8.75923054E-02
  1.94837897E-01 -2.62218151E-01 -1.24829519E-01  2.06663209E-01  1.14269892E-01
  4.81940116E-02  8.31293251E-02  7.43288943E-02 -1.23056212E-01 -5.75439408E-02
  7.91027073E-02  7.10235064E-01  0.00000000E+00  0.00000000E+00  0.00000000E+00
  6.29936196E-01  0.00000000E+00  0.00000000E+00  0.00000000E+00  1.00000000E+00
  1.62155161E-08  1.97365057E-04 -5.55776559E-04  6.00241427E-05  1.19125029E-04
  1.50676216E-02 -5.03019323E-02  1.00302490E-02  1.07817054E-02  3.01632164E-04
  1.45048091E-05  2.79835992E-05 -5.00745277E-05 -1.06483327E-04  1.07329636E-05
  3.63477916E-04  2.86303316E-02 -4.76565228E-02 -1.68137784E-04  2.66932333E-02
  1.40648356E-01 -2.66345623E-01 -5.39963540E-02  1.49184737E-01  4.81940116E-02
  8.09630018E-03  1.96924955E-02 -4.06964770E-03 -4.02914727E-02  2.27947926E-03
  7.91027073E-02  7.10235064E-01  0.00000000E+00  0.00000000E+00  0.00000000E+00
  6.29936196E-01  0.00000000E+00  0.00000000E+00  0.00000000E+00  3.33333333E-01
  1.00000000E+00  8.11632288E-09  1.42337718E-04 -4.00695717E-04  1.26676449E-04
  7.45561703E-06  1.40538636E-02 -4.69175901E-02  1.48325860E-02  6.07498311E-03
  1.94159630E-04  2.79835992E-05  1.01467396E-05 -1.01097702E-04  3.99046173E-06
 -1.26154960E-06  9.00936813E-04  4.24358410E-02 -7.21225074E-02 -2.44007838E-02
  1.39821791E-02  1.52842360E-01 -2.89437393E-01 -9.79236512E-02  1.02328494E-01
  8.31293251E-02  1.96924955E-02  1.13275790E-02  4.19786481E-02 -2.24692885E-02
 -7.60190224E-03  7.91027073E-02  7.10235064E-01  0.00000000E+00  0.00000000E+00
  0.00000000E+00  6.29936196E-01  0.00000000E+00  0.00000000E+00  0.00000000E+00
  3.33333333E-01  3.33333333E-01  1.00000000E+00 -8.21220222E-08 -5.57951418E-04
  1.47226542E-03 -1.80226632E-04 -3.37037962E-04 -1.02790311E-02  2.92301105E-02
  5.23767613E-03 -7.35520763E-03 -9.82737652E-04 -5.00745277E-05 -1.01097702E-04
  2.60182454E-04  3.64838799E-04 -5.88029487E-05  1.58052505E-03  4.05983667E-02
 -5.81303962E-02  1.64996194E-02  4.02993141E-02  3.58593534E-02 -3.66304854E-02
  6.94703569E-02  3.80357680E-02  7.43288943E-02 -4.06964770E-03  4.19786481E-02
 -1.74920527E-02 -7.21102713E-02  1.16697973E-02  0.00000000E+00  0.00000000E+00
  0.00000000E+00  0.00000000E+00  0.00000000E+00  0.00000000E+00  0.00000000E+00
  0.00000000E+00  0.00000000E+00  0.00000000E+00  0.00000000E+00  0.00000000E+00
  1.00000000E+00 -5.56776954E-08 -3.78284025E-04  9.98177390E-04 -3.37037962E-04
  8.83812662E-05 -6.96905346E-03  1.98176463E-02 -7.35520763E-03  1.10995287E-02
 -6.66283734E-04 -1.06483327E-04  3.99046173E-06  3.64838799E-04 -3.05817743E-05
  1.01944116E-05 -2.61665975E-03 -6.72131782E-02  9.62385682E-02  4.02993141E-02
 -2.58767090E-02 -5.93674403E-02  6.06440984E-02  3.80357680E-02  2.94742372E-02
 -1.23056212E-01 -4.02914727E-02 -2.24692885E-02 -7.21102713E-02  5.83347598E-02
  2.35073719E-02  0.00000000E+00  0.00000000E+00  0.00000000E+00  0.00000000E+00
  0.00000000E+00  0.00000000E+00  0.00000000E+00  0.00000000E+00  0.00000000E+00
  0.00000000E+00  0.00000000E+00  0.00000000E+00  0.00000000E+00  1.00000000E+00
  1.76020167E-08  1.19591188E-04 -3.37037962E-04  3.86297379E-05 -2.79409648E-05
  2.20320534E-03 -7.35520763E-03 -1.12264239E-03 -3.50901900E-03  2.33570588E-04
  1.07329636E-05 -1.26154960E-06 -5.88029487E-05  1.01944116E-05 -1.55826726E-06
 -8.85279105E-04 -2.27398393E-02  4.02993141E-02 -9.24171892E-03 -8.75471477E-03
 -2.00854370E-02  3.80357680E-02 -3.89115347E-02  9.97184534E-03 -5.75439408E-02
  2.27947926E-03 -7.60190224E-03  1.16697973E-02  2.35073719E-02 -3.19393855E-03
  0.00000000E+00  0.00000000E+00  0.00000000E+00  0.00000000E+00  0.00000000E+00
  0.00000000E+00  0.00000000E+00  0.00000000E+00  0.00000000E+00  0.00000000E+00
  0.00000000E+00  0.00000000E+00  0.00000000E+00  0.00000000E+00  1.00000000E+00
  0.00000000E+00  0.00000000E+00  0.00000000E+00  0.00000000E+00  0.00000000E+00
  4.33773337E-05 -2.39896115E-04  6.47877415E-06 -2.79942610E-05  0.00000000E+00
  0.00000000E+00  0.00000000E+00  0.00000000E+00  0.00000000E+00  0.00000000E+00
  0.00000000E+00  2.08322119E-07 -8.81360556E-07 -4.29957271E-07 -5.45038483E-08
  1.17767669E-03 -4.49679181E-03 -2.19368603E-03 -2.78084216E-04  0.00000000E+00
  0.00000000E+00  0.00000000E+00  0.00000000E+00  0.00000000E+00  0.00000000E+00
  0.00000000E+00  2.90619917E-03 -5.10356281E-03 -3.58027942E-03 -4.85245013E-03
  2.64030509E-02 -4.15134375E-02 -2.91227347E-02 -3.94708350E-02  2.62669359E-03
  1.31776858E-03  2.37930696E-03  3.13164948E-03  4.24440977E-03  2.97756166E-03
  1.00000000E+00  0.00000000E+00  5.12354366E-08 -2.20087062E-07  5.94379933E-09
 -2.56826779E-08  6.24618599E-04 -3.01163804E-03  8.13340504E-05 -3.51437878E-04
  0.00000000E+00  0.00000000E+00  0.00000000E+00  0.00000000E+00  0.00000000E+00
  0.00000000E+00  0.00000000E+00  6.03274873E-05 -1.78693497E-04 -8.71726873E-05
 -1.10505096E-05  1.10747830E-02 -3.67881577E-02 -1.79464985E-02 -2.27500102E-03
  5.63787877E-05  1.50386082E-05  2.33536323E-06  4.58394304E-05  5.81086897E-06
  2.83473698E-06  3.57141137E-04  4.54148791E-02 -5.68376772E-02 -3.98730796E-02
 -5.40410699E-02  1.65101495E-01 -2.25191244E-01 -1.57977399E-01 -2.14111068E-01
  4.95139361E-02  2.92020599E-02  4.56749946E-02  4.85968837E-02  6.58646791E-02
  4.62057515E-02  2.33689906E-01  1.00000000E+00  0.00000000E+00  1.59311930E-07
 -6.63891045E-07  1.84817034E-08 -7.98579510E-08  8.67755157E-04 -3.92032544E-03
  1.14174899E-04 -4.93340538E-04  0.00000000E+00  0.00000000E+00  0.00000000E+00
  0.00000000E+00  0.00000000E+00  0.00000000E+00  0.00000000E+00  1.30797937E-04
 -3.64481206E-04 -1.89674682E-04 -2.40442499E-05  1.10055150E-02 -3.14457184E-02
 -1.80953685E-02 -2.29387264E-03  1.38468588E-04  4.08307436E-05  6.33199381E-06
  1.18306671E-04  1.49972318E-05  7.69841738E-06  7.09376936E-04  4.39487972E-02
 -3.75551820E-02 -4.08559325E-02 -5.53731573E-02  7.07575995E-02 -1.02453479E-02
 -6.90672309E-02 -9.36086978E-02  3.22110149E-02  3.54235291E-02  5.59939949E-02
  4.33234930E-02  5.87175091E-02  5.76991199E-02  0.00000000E+00  0.00000000E+00
  1.00000000E+00  0.00000000E+00 -4.30247074E-09  1.84817034E-08  1.99505273E-08
  2.15669032E-09 -2.34351010E-05  1.14174899E-04  3.04260399E-04  1.33234418E-05
  0.00000000E+00  0.00000000E+00  0.00000000E+00  0.00000000E+00  0.00000000E+00
  0.00000000E+00  0.00000000E+00  6.38076250E-05 -1.89674682E-04 -6.82006595E-05
 -1.17295924E-05  5.36885972E-03 -1.80953685E-02 -3.17992340E-03 -1.11902809E-03
  7.46873450E-05  1.27808889E-05  3.08895917E-06  4.80582645E-05  7.69841738E-06
  2.97195097E-06  4.97646005E-04  3.08312016E-02 -4.08559325E-02 -7.97796051E-03
 -3.88456815E-02  4.96382599E-02 -6.90672309E-02  3.97551455E-02 -6.56688879E-02
  4.26442244E-02  4.80313243E-03  3.92812149E-02  1.78238331E-02  5.76991199E-02
  1.69468398E-02  0.00000000E+00  0.00000000E+00  0.00000000E+00  1.00000000E+00
  0.00000000E+00  1.85906293E-08 -7.98579510E-08  2.15669032E-09  1.11307699E-08
  1.01261183E-04 -4.93340538E-04  1.33234418E-05  2.49774355E-04  0.00000000E+00
  0.00000000E+00  0.00000000E+00  0.00000000E+00  0.00000000E+00  0.00000000E+00
  0.00000000E+00  8.08862032E-06 -2.40442499E-05 -1.17295924E-05  2.28421082E-05
  6.80587435E-04 -2.29387264E-03 -1.11902809E-03  5.50575050E-03  9.46779599E-06
  2.52499688E-06 -5.13243974E-07  7.69841738E-06 -1.16953229E-05 -5.70537117E-06
  6.74473174E-04  4.17863667E-02 -5.53731573E-02 -3.88456815E-02 -3.19650916E-02
  6.72760846E-02 -9.36086978E-02 -6.56688879E-02 -7.95262306E-04  5.77968780E-02
  3.36805708E-02  2.60681449E-02  5.76991199E-02  5.34529249E-02  3.74985895E-02
  0.00000000E+00  0.00000000E+00  0.00000000E+00  0.00000000E+00  1.00000000E+00
  1.31628110E-06  1.81904268E-04 -4.05715652E-04  1.09569931E-05 -4.73442842E-05
  6.62102271E-03 -2.30098178E-02  6.21416536E-04 -2.68509077E-03  3.26676482E-04
  4.41233482E-05  4.77675403E-05 -1.32265706E-05  5.71509455E-05 -1.54345171E-06
  2.07218463E-04  6.59861323E-03 -1.05628351E-02 -5.15290561E-03 -6.53211854E-04
  5.26910152E-02 -1.26385743E-01 -6.16552088E-02 -7.81576771E-03  1.00756127E-02
  4.28558656E-03  2.50639448E-03  6.42018255E-03  8.13859144E-04  3.97027815E-04
  2.47255391E-02  1.88393472E-01 -1.38631216E-01 -9.72533320E-02 -1.31810088E-01
  3.71571389E-01 -3.66880782E-01 -2.57376221E-01 -3.48828998E-01  1.67887930E-01
  1.38728907E-01  1.62376879E-01  6.97639963E-02  9.45530429E-02  6.63313701E-02
  1.67279760E-01  7.63640773E-01  0.00000000E+00  0.00000000E+00  0.00000000E+00
  1.00000000E+00  8.80372794E-06  8.66791556E-04 -1.83098668E-03  5.25163599E-05
 -2.26918959E-04  1.81887439E-02 -5.67685920E-02  1.70710579E-03 -7.37626657E-03
  1.58642630E-03  2.35659757E-04  2.55123136E-04 -6.69391115E-05  2.89238506E-04
 -8.24346904E-06  9.60051507E-04  2.16003815E-02 -3.09237856E-02 -1.71758985E-02
 -2.17731535E-03  9.99050900E-02 -1.88366955E-01 -1.16901699E-01 -1.48191295E-02
  3.09773385E-02  1.57979471E-02  9.23931575E-03  2.10624040E-02  2.66999107E-03
  1.46356265E-03  4.73341942E-02  2.49950907E-01 -5.73007962E-02 -1.36033550E-01
 -1.84369973E-01  2.90011014E-01  7.51824228E-02 -2.00881826E-01 -2.72260606E-01
  1.41603368E-01  2.10512809E-01  2.46397190E-01  3.71157041E-02  5.03039239E-02
  1.00653882E-01  0.00000000E+00  0.00000000E+00  5.01520641E-01  0.00000000E+00
  0.00000000E+00  0.00000000E+00  1.00000000E+00 -2.37758603E-07 -2.34090774E-05
  5.25163599E-05  1.12171333E-04  6.12830552E-06 -4.91215808E-04  1.70710579E-03
  6.39603552E-03  1.99207750E-04 -4.71199110E-05 -2.08840585E-06 -6.89000395E-06
 -1.35210209E-04 -8.24346904E-06 -1.57781208E-05  4.68345359E-04  1.05373913E-02
 -1.71758985E-02 -4.09424495E-03 -1.06216753E-03  4.87370572E-02 -1.16901699E-01
 -5.76114294E-03 -7.22926891E-03  1.81189712E-02  4.69958356E-03  4.50724843E-03
  6.20691344E-03  1.46356265E-03  3.83839130E-04  3.32061439E-02  1.75346933E-01
 -1.36033550E-01  4.11792578E-02 -1.29340236E-01  2.03450120E-01 -2.00881826E-01