Jobname.Temp
SP        RHF                           6-31G               
Number of atoms                            I               38
Charge                                     I                0
Multiplicity                               I                1
Number of electrons                        I              162
Number of alpha electrons                  I               81
Number of beta electrons                   I               81
Atomic numbers                             I   N=          38
           6           6           6           6           7           6
           6           7           6           6           6           6
           6           7           6           6           6           7
           6           6           6           6           6           6
           1           1           1           1           1           1
           1           1           1           1           1           1
           1           1
Current cartesian coordinates              R   N=         114
  1.26054370E+00 -7.92075682E+00 -8.44212695E-18 -1.26054370E+00 -7.92075682E+00
 -1.23766351E-15 -2.00801164E+00 -5.27436356E+00 -1.39394351E-15  2.00801164E+00
 -5.27436356E+00  5.64172531E-16 -1.58761893E-14 -3.73756836E+00 -2.93999999E-16
  4.58090022E+00 -4.60144721E+00  1.87158303E-15  5.43960689E+00 -2.14561016E+00
  2.48344571E-15  3.98095942E+00 -1.67643677E-14  1.94101975E-15  5.43960689E+00
  2.14561016E+00  2.82099640E-15  7.98254519E+00 -1.30342537E+00  3.78956797E-15
  7.98254519E+00  1.30342537E+00  3.99462485E-15  4.58090022E+00  4.60144721E+00
  2.59548978E-15  2.00801164E+00  5.27436356E+00  1.39394351E-15  1.58761893E-14
  3.73756836E+00  2.93999999E-16 -1.26054370E+00  7.92075682E+00  8.44212695E-18
  1.26054370E+00  7.92075682E+00  1.23766351E-15 -5.43960689E+00  2.14561016E+00
 -2.48344571E-15 -3.98095942E+00  1.72084569E-14 -1.94101975E-15 -5.43960689E+00
 -2.14561016E+00 -2.82099640E-15 -7.98254519E+00 -1.30342537E+00 -3.99462485E-15
 -7.98254519E+00  1.30342537E+00 -3.78956797E-15 -4.58090022E+00 -4.60144721E+00
 -2.59548978E-15 -4.58090022E+00  4.60144721E+00 -1.87158303E-15 -2.00801164E+00
  5.27436356E+00 -5.64172531E-16  2.50460710E+00 -9.52956948E+00  4.71582726E-16
 -2.50460710E+00 -9.52956948E+00 -1.97078924E-15  5.96713338E+00 -6.11079981E+00
  2.42875004E-15  2.06272110E+00 -8.60422844E-15  1.00573303E-15  9.62502522E+00
 -2.51265167E+00  4.49528293E-15  9.62502522E+00  2.51265167E+00  4.89057715E-15
  5.96713338E+00  6.11079981E+00  3.39011046E-15 -2.50460710E+00  9.52956948E+00
 -4.71582726E-16  2.50460710E+00  9.52956948E+00  1.97078924E-15 -2.06272110E+00
  9.04831765E-15 -1.00573303E-15 -9.62502522E+00 -2.51265167E+00 -4.89057715E-15
 -9.62502522E+00  2.51265167E+00 -4.49528293E-15 -5.96713338E+00 -6.11079981E+00
 -3.39011046E-15 -5.96713338E+00  6.11079981E+00 -2.42875004E-15
Nuclear charges                            R   N=          38
  6.00000000E+00  6.00000000E+00  6.00000000E+00  6.00000000E+00  7.00000000E+00
  6.00000000E+00  6.00000000E+00  7.00000000E+00  6.00000000E+00  6.00000000E+00
  6.00000000E+00  6.00000000E+00  6.00000000E+00  7.00000000E+00  6.00000000E+00
  6.00000000E+00  6.00000000E+00  7.00000000E+00  6.00000000E+00  6.00000000E+00
  6.00000000E+00  6.00000000E+00  6.00000000E+00  6.00000000E+00  1.00000000E+00
  1.00000000E+00  1.00000000E+00  1.00000000E+00  1.00000000E+00  1.00000000E+00
  1.00000000E+00  1.00000000E+00  1.00000000E+00  1.00000000E+00  1.00000000E+00
  1.00000000E+00  1.00000000E+00  1.00000000E+00
Number of basis functions                  I              244
Number of contracted shells                I              100
Highest angular momentum                   I                1
Largest degree of contraction              I                6
Number of primitive shells                 I              296
Shell types                                I   N=         100
           0          -1          -1           0          -1          -1
           0          -1          -1           0          -1          -1
           0          -1          -1           0          -1          -1
           0          -1          -1           0          -1          -1
           0          -1          -1           0          -1          -1
           0          -1          -1           0          -1          -1
           0          -1          -1           0          -1          -1
           0          -1          -1           0          -1          -1
           0          -1          -1           0          -1          -1
           0          -1          -1           0          -1          -1
           0          -1          -1           0          -1          -1
           0          -1          -1           0          -1          -1
           0           0           0           0           0           0
           0           0           0           0           0           0
           0           0           0           0           0           0
           0           0           0           0           0           0
           0           0           0           0
Number of primitives per shell             I   N=         100
           6           3           1           6           3           1
           6           3           1           6           3           1
           6           3           1           6           3           1
           6           3           1           6           3           1
           6           3           1           6           3           1
           6           3           1           6           3           1
           6           3           1           6           3           1
           6           3           1           6           3           1
           6           3           1           6           3           1
           6           3           1           6           3           1
           6           3           1           6           3           1
           6           3           1           6           3           1
           3           1           3           1           3           1
           3           1           3           1           3           1
           3           1           3           1           3           1
           3           1           3           1           3           1
           3           1           3           1
Shell to atom map                          I   N=         100
           1           1           1           2           2           2
           3           3           3           4           4           4
           5           5           5           6           6           6
           7           7           7           8           8           8
           9           9           9          10          10          10
          11          11          11          12          12          12
          13          13          13          14          14          14
          15          15          15          16          16          16
          17          17          17          18          18          18
          19          19          19          20          20          20
          21          21          21          22          22          22
          23          23          23          24          24          24
          25          25          26          26          27          27
          28          28          29          29          30          30
          31          31          32          32          33          33
          34          34          35          35          36          36
          37          37          38          38
Primitive exponents                        R   N=         296
  3.04752490E+03  4.57369510E+02  1.03948690E+02  2.92101550E+01  9.28666300E+00
  3.16392700E+00  7.86827240E+00  1.88128850E+00  5.44249300E-01  1.68714400E-01
  3.04752490E+03  4.57369510E+02  1.03948690E+02  2.92101550E+01  9.28666300E+00
  3.16392700E+00  7.86827240E+00  1.88128850E+00  5.44249300E-01  1.68714400E-01
  3.04752490E+03  4.57369510E+02  1.03948690E+02  2.92101550E+01  9.28666300E+00
  3.16392700E+00  7.86827240E+00  1.88128850E+00  5.44249300E-01  1.68714400E-01
  3.04752490E+03  4.57369510E+02  1.03948690E+02  2.92101550E+01  9.28666300E+00
  3.16392700E+00  7.86827240E+00  1.88128850E+00  5.44249300E-01  1.68714400E-01
  4.17351100E+03  6.27457900E+02  1.42902100E+02  4.02343300E+01  1.28202100E+01
  4.39043700E+00  1.16263580E+01  2.71628000E+00  7.72218000E-01  2.12031300E-01
  3.04752490E+03  4.57369510E+02  1.03948690E+02  2.92101550E+01  9.28666300E+00
  3.16392700E+00  7.86827240E+00  1.88128850E+00  5.44249300E-01  1.68714400E-01
  3.04752490E+03  4.57369510E+02  1.03948690E+02  2.92101550E+01  9.28666300E+00
  3.16392700E+00  7.86827240E+00  1.88128850E+00  5.44249300E-01  1.68714400E-01
  4.17351100E+03  6.27457900E+02  1.42902100E+02  4.02343300E+01  1.28202100E+01
  4.39043700E+00  1.16263580E+01  2.71628000E+00  7.72218000E-01  2.12031300E-01
  3.04752490E+03  4.57369510E+02  1.03948690E+02  2.92101550E+01  9.28666300E+00
  3.16392700E+00  7.86827240E+00  1.88128850E+00  5.44249300E-01  1.68714400E-01
  3.04752490E+03  4.57369510E+02  1.03948690E+02  2.92101550E+01  9.28666300E+00
  3.16392700E+00  7.86827240E+00  1.88128850E+00  5.44249300E-01  1.68714400E-01
  3.04752490E+03  4.57369510E+02  1.03948690E+02  2.92101550E+01  9.28666300E+00
  3.16392700E+00  7.86827240E+00  1.88128850E+00  5.44249300E-01  1.68714400E-01
  3.04752490E+03  4.57369510E+02  1.03948690E+02  2.92101550E+01  9.28666300E+00
  3.16392700E+00  7.86827240E+00  1.88128850E+00  5.44249300E-01  1.68714400E-01
  3.04752490E+03  4.57369510E+02  1.03948690E+02  2.92101550E+01  9.28666300E+00
  3.16392700E+00  7.86827240E+00  1.88128850E+00  5.44249300E-01  1.68714400E-01
  4.17351100E+03  6.27457900E+02  1.42902100E+02  4.02343300E+01  1.28202100E+01
  4.39043700E+00  1.16263580E+01  2.71628000E+00  7.72218000E-01  2.12031300E-01
  3.04752490E+03  4.57369510E+02  1.03948690E+02  2.92101550E+01  9.28666300E+00
  3.16392700E+00  7.86827240E+00  1.88128850E+00  5.44249300E-01  1.68714400E-01
  3.04752490E+03  4.57369510E+02  1.03948690E+02  2.92101550E+01  9.28666300E+00
  3.16392700E+00  7.86827240E+00  1.88128850E+00  5.44249300E-01  1.68714400E-01
  3.04752490E+03  4.57369510E+02  1.03948690E+02  2.92101550E+01  9.28666300E+00
  3.16392700E+00  7.86827240E+00  1.88128850E+00  5.44249300E-01  1.68714400E-01
  4.17351100E+03  6.27457900E+02  1.42902100E+02  4.02343300E+01  1.28202100E+01
  4.39043700E+00  1.16263580E+01  2.71628000E+00  7.72218000E-01  2.12031300E-01
  3.04752490E+03  4.57369510E+02  1.03948690E+02  2.92101550E+01  9.28666300E+00
  3.16392700E+00  7.86827240E+00  1.88128850E+00  5.44249300E-01  1.68714400E-01
  3.04752490E+03  4.57369510E+02  1.03948690E+02  2.92101550E+01  9.28666300E+00
  3.16392700E+00  7.86827240E+00  1.88128850E+00  5.44249300E-01  1.68714400E-01
  3.04752490E+03  4.57369510E+02  1.03948690E+02  2.92101550E+01  9.28666300E+00
  3.16392700E+00  7.86827240E+00  1.88128850E+00  5.44249300E-01  1.68714400E-01
  3.04752490E+03  4.57369510E+02  1.03948690E+02  2.92101550E+01  9.28666300E+00
  3.16392700E+00  7.86827240E+00  1.88128850E+00  5.44249300E-01  1.68714400E-01
  3.04752490E+03  4.57369510E+02  1.03948690E+02  2.92101550E+01  9.28666300E+00
  3.16392700E+00  7.86827240E+00  1.88128850E+00  5.44249300E-01  1.68714400E-01
  3.04752490E+03  4.57369510E+02  1.03948690E+02  2.92101550E+01  9.28666300E+00
  3.16392700E+00  7.86827240E+00  1.88128850E+00  5.44249300E-01  1.68714400E-01
  1.87311370E+01  2.82539370E+00  6.40121700E-01  1.61277800E-01  1.87311370E+01
  2.82539370E+00  6.40121700E-01  1.61277800E-01  1.87311370E+01  2.82539370E+00
  6.40121700E-01  1.61277800E-01  1.87311370E+01  2.82539370E+00  6.40121700E-01
  1.61277800E-01  1.87311370E+01  2.82539370E+00  6.40121700E-01  1.61277800E-01
  1.87311370E+01  2.82539370E+00  6.40121700E-01  1.61277800E-01  1.87311370E+01
  2.82539370E+00  6.40121700E-01  1.61277800E-01  1.87311370E+01  2.82539370E+00
  6.40121700E-01  1.61277800E-01  1.87311370E+01  2.82539370E+00  6.40121700E-01
  1.61277800E-01  1.87311370E+01  2.82539370E+00  6.40121700E-01  1.61277800E-01
  1.87311370E+01  2.82539370E+00  6.40121700E-01  1.61277800E-01  1.87311370E+01
  2.82539370E+00  6.40121700E-01  1.61277800E-01  1.87311370E+01  2.82539370E+00
  6.40121700E-01  1.61277800E-01  1.87311370E+01  2.82539370E+00  6.40121700E-01
  1.61277800E-01
Contraction coefficients                   R   N=         296
  5.36334382E-01  9.89450608E-01  1.59728223E+00  2.07918706E+00  1.77417425E+00
  6.12579826E-01 -3.99556352E-01 -1.84155239E-01  5.16390379E-01  1.87617872E-01
  5.36334382E-01  9.89450608E-01  1.59728223E+00  2.07918706E+00  1.77417425E+00
  6.12579826E-01 -3.99556352E-01 -1.84155239E-01  5.16390379E-01  1.87617872E-01
  5.36334382E-01  9.89450608E-01  1.59728223E+00  2.07918706E+00  1.77417425E+00
  6.12579826E-01 -3.99556352E-01 -1.84155239E-01  5.16390379E-01  1.87617872E-01
  5.36334382E-01  9.89450608E-01  1.59728223E+00  2.07918706E+00  1.77417425E+00
  6.12579826E-01 -3.99556352E-01 -1.84155239E-01  5.16390379E-01  1.87617872E-01
  6.79007957E-01  1.25046433E+00  2.02036914E+00  2.64421298E+00  2.26500400E+00
  7.79187231E-01 -5.15873810E-01 -2.55023919E-01  6.72734416E-01  2.22694799E-01
  5.36334382E-01  9.89450608E-01  1.59728223E+00  2.07918706E+00  1.77417425E+00
  6.12579826E-01 -3.99556352E-01 -1.84155239E-01  5.16390379E-01  1.87617872E-01
  5.36334382E-01  9.89450608E-01  1.59728223E+00  2.07918706E+00  1.77417425E+00
  6.12579826E-01 -3.99556352E-01 -1.84155239E-01  5.16390379E-01  1.87617872E-01
  6.79007957E-01  1.25046433E+00  2.02036914E+00  2.64421298E+00  2.26500400E+00
  7.79187231E-01 -5.15873810E-01 -2.55023919E-01  6.72734416E-01  2.22694799E-01
  5.36334382E-01  9.89450608E-01  1.59728223E+00  2.07918706E+00  1.77417425E+00
  6.12579826E-01 -3.99556352E-01 -1.84155239E-01  5.16390379E-01  1.87617872E-01
  5.36334382E-01  9.89450608E-01  1.59728223E+00  2.07918706E+00  1.77417425E+00
  6.12579826E-01 -3.99556352E-01 -1.84155239E-01  5.16390379E-01  1.87617872E-01
  5.36334382E-01  9.89450608E-01  1.59728223E+00  2.07918706E+00  1.77417425E+00
  6.12579826E-01 -3.99556352E-01 -1.84155239E-01  5.16390379E-01  1.87617872E-01
  5.36334382E-01  9.89450608E-01  1.59728223E+00  2.07918706E+00  1.77417425E+00
  6.12579826E-01 -3.99556352E-01 -1.84155239E-01  5.16390379E-01  1.87617872E-01
  5.36334382E-01  9.89450608E-01  1.59728223E+00  2.07918706E+00  1.77417425E+00
  6.12579826E-01 -3.99556352E-01 -1.84155239E-01  5.16390379E-01  1.87617872E-01
  6.79007957E-01  1.25046433E+00  2.02036914E+00  2.64421298E+00  2.26500400E+00
  7.79187231E-01 -5.15873810E-01 -2.55023919E-01  6.72734416E-01  2.22694799E-01
  5.36334382E-01  9.89450608E-01  1.59728223E+00  2.07918706E+00  1.77417425E+00
  6.12579826E-01 -3.99556352E-01 -1.84155239E-01  5.16390379E-01  1.87617872E-01
  5.36334382E-01  9.89450608E-01  1.59728223E+00  2.07918706E+00  1.77417425E+00
  6.12579826E-01 -3.99556352E-01 -1.84155239E-01  5.16390379E-01  1.87617872E-01
  5.36334382E-01  9.89450608E-01  1.59728223E+00  2.07918706E+00  1.77417425E+00
  6.12579826E-01 -3.99556352E-01 -1.84155239E-01  5.16390379E-01  1.87617872E-01
  6.79007957E-01  1.25046433E+00  2.02036914E+00  2.64421298E+00  2.26500400E+00
  7.79187231E-01 -5.15873810E-01 -2.55023919E-01  6.72734416E-01  2.22694799E-01
  5.36334382E-01  9.89450608E-01  1.59728223E+00  2.07918706E+00  1.77417425E+00
  6.12579826E-01 -3.99556352E-01 -1.84155239E-01  5.16390379E-01  1.87617872E-01
  5.36334382E-01  9.89450608E-01  1.59728223E+00  2.07918706E+00  1.77417425E+00
  6.12579826E-01 -3.99556352E-01 -1.84155239E-01  5.16390379E-01  1.87617872E-01
  5.36334382E-01  9.89450608E-01  1.59728223E+00  2.07918706E+00  1.77417425E+00
  6.12579826E-01 -3.99556352E-01 -1.84155239E-01  5.16390379E-01  1.87617872E-01
  5.36334382E-01  9.89450608E-01  1.59728223E+00  2.07918706E+00  1.77417425E+00
  6.12579826E-01 -3.99556352E-01 -1.84155239E-01  5.16390379E-01  1.87617872E-01
  5.36334382E-01  9.89450608E-01  1.59728223E+00  2.07918706E+00  1.77417425E+00
  6.12579826E-01 -3.99556352E-01 -1.84155239E-01  5.16390379E-01  1.87617872E-01
  5.36334382E-01  9.89450608E-01  1.59728223E+00  2.07918706E+00  1.77417425E+00
  6.12579826E-01 -3.99556352E-01 -1.84155239E-01  5.16390379E-01  1.87617872E-01
  2.14935418E-01  3.64571127E-01  4.15051428E-01  1.81380684E-01  2.14935418E-01
  3.64571127E-01  4.15051428E-01  1.81380684E-01  2.14935418E-01  3.64571127E-01
  4.15051428E-01  1.81380684E-01  2.14935418E-01  3.64571127E-01  4.15051428E-01
  1.81380684E-01  2.14935418E-01  3.64571127E-01  4.15051428E-01  1.81380684E-01
  2.14935418E-01  3.64571127E-01  4.15051428E-01  1.81380684E-01  2.14935418E-01
  3.64571127E-01  4.15051428E-01  1.81380684E-01  2.14935418E-01  3.64571127E-01
  4.15051428E-01  1.81380684E-01  2.14935418E-01  3.64571127E-01  4.15051428E-01
  1.81380684E-01  2.14935418E-01  3.64571127E-01  4.15051428E-01  1.81380684E-01
  2.14935418E-01  3.64571127E-01  4.15051428E-01  1.81380684E-01  2.14935418E-01
  3.64571127E-01  4.15051428E-01  1.81380684E-01  2.14935418E-01  3.64571127E-01
  4.15051428E-01  1.81380684E-01  2.14935418E-01  3.64571127E-01  4.15051428E-01
  1.81380684E-01
P(S=P) Contraction coefficients            R   N=         296
  0.00000000E+00  0.00000000E+00  0.00000000E+00  0.00000000E+00  0.00000000E+00
  0.00000000E+00  1.29608272E+00  9.93753628E-01  4.95952714E-01  1.54127551E-01
  0.00000000E+00  0.00000000E+00  0.00000000E+00  0.00000000E+00  0.00000000E+00
  0.00000000E+00  1.29608272E+00  9.93753628E-01  4.95952714E-01  1.54127551E-01
  0.00000000E+00  0.00000000E+00  0.00000000E+00  0.00000000E+00  0.00000000E+00
  0.00000000E+00  1.29608272E+00  9.93753628E-01  4.95952714E-01  1.54127551E-01
  0.00000000E+00  0.00000000E+00  0.00000000E+00  0.00000000E+00  0.00000000E+00
  0.00000000E+00  1.29608272E+00  9.93753628E-01  4.95952714E-01  1.54127551E-01
  0.00000000E+00  0.00000000E+00  0.00000000E+00  0.00000000E+00  0.00000000E+00
  0.00000000E+00  2.06805955E+00  1.61001062E+00  7.64489988E-01  2.05087909E-01
  0.00000000E+00  0.00000000E+00  0.00000000E+00  0.00000000E+00  0.00000000E+00
  0.00000000E+00  1.29608272E+00  9.93753628E-01  4.95952714E-01  1.54127551E-01
  0.00000000E+00  0.00000000E+00  0.00000000E+00  0.00000000E+00  0.00000000E+00
  0.00000000E+00  1.29608272E+00  9.93753628E-01  4.95952714E-01  1.54127551E-01
  0.00000000E+00  0.00000000E+00  0.00000000E+00  0.00000000E+00  0.00000000E+00
  0.00000000E+00  2.06805955E+00  1.61001062E+00  7.64489988E-01  2.05087909E-01
  0.00000000E+00  0.00000000E+00  0.00000000E+00  0.00000000E+00  0.00000000E+00
  0.00000000E+00  1.29608272E+00  9.93753628E-01  4.95952714E-01  1.54127551E-01
  0.00000000E+00  0.00000000E+00  0.00000000E+00  0.00000000E+00  0.00000000E+00
  0.00000000E+00  1.29608272E+00  9.93753628E-01  4.95952714E-01  1.54127551E-01
  0.00000000E+00  0.00000000E+00  0.00000000E+00  0.00000000E+00  0.00000000E+00
  0.00000000E+00  1.29608272E+00  9.93753628E-01  4.95952714E-01  1.54127551E-01
  0.00000000E+00  0.00000000E+00  0.00000000E+00  0.00000000E+00  0.00000000E+00
  0.00000000E+00  1.29608272E+00  9.93753628E-01  4.95952714E-01  1.54127551E-01
  0.00000000E+00  0.00000000E+00  0.00000000E+00  0.00000000E+00  0.00000000E+00
  0.00000000E+00  1.29608272E+00  9.93753628E-01  4.95952714E-01  1.54127551E-01
  0.00000000E+00  0.00000000E+00  0.00000000E+00  0.00000000E+00  0.00000000E+00
  0.00000000E+00  2.06805955E+00  1.61001062E+00  7.64489988E-01  2.05087909E-01
  0.00000000E+00  0.00000000E+00  0.00000000E+00  0.00000000E+00  0.00000000E+00
  0.00000000E+00  1.29608272E+00  9.93753628E-01  4.95952714E-01  1.54127551E-01
  0.00000000E+00  0.00000000E+00  0.00000000E+00  0.00000000E+00  0.00000000E+00
  0.00000000E+00  1.29608272E+00  9.93753628E-01  4.95952714E-01  1.54127551E-01
  0.00000000E+00  0.00000000E+00  0.00000000E+00  0.00000000E+00  0.00000000E+00
  0.00000000E+00  1.29608272E+00  9.93753628E-01  4.95952714E-01  1.54127551E-01
  0.00000000E+00  0.00000000E+00  0.00000000E+00  0.00000000E+00  0.00000000E+00
  0.00000000E+00  2.06805955E+00  1.61001062E+00  7.64489988E-01  2.05087909E-01
  0.00000000E+00  0.00000000E+00  0.00000000E+00  0.00000000E+00  0.00000000E+00
  0.00000000E+00  1.29608272E+00  9.93753628E-01  4.95952714E-01  1.54127551E-01
  0.00000000E+00  0.00000000E+00  0.00000000E+00  0.00000000E+00  0.00000000E+00
  0.00000000E+00  1.29608272E+00  9.93753628E-01  4.95952714E-01  1.54127551E-01
  0.00000000E+00  0.00000000E+00  0.00000000E+00  0.00000000E+00  0.00000000E+00
  0.00000000E+00  1.29608272E+00  9.93753628E-01  4.95952714E-01  1.54127551E-01
  0.00000000E+00  0.00000000E+00  0.00000000E+00  0.00000000E+00  0.00000000E+00
  0.00000000E+00  1.29608272E+00  9.93753628E-01  4.95952714E-01  1.54127551E-01
  0.00000000E+00  0.00000000E+00  0.00000000E+00  0.00000000E+00  0.00000000E+00
  0.00000000E+00  1.29608272E+00  9.93753628E-01  4.95952714E-01  1.54127551E-01
  0.00000000E+00  0.00000000E+00  0.00000000E+00  0.00000000E+00  0.00000000E+00
  0.00000000E+00  1.29608272E+00  9.93753628E-01  4.95952714E-01  1.54127551E-01
  0.00000000E+00  0.00000000E+00  0.00000000E+00  0.00000000E+00  0.00000000E+00
  0.00000000E+00  0.00000000E+00  0.00000000E+00  0.00000000E+00  0.00000000E+00
  0.00000000E+00  0.00000000E+00  0.00000000E+00  0.00000000E+00  0.00000000E+00
  0.00000000E+00  0.00000000E+00  0.00000000E+00  0.00000000E+00  0.00000000E+00
  0.00000000E+00  0.00000000E+00  0.00000000E+00  0.00000000E+00  0.00000000E+00
  0.00000000E+00  0.00000000E+00  0.00000000E+00  0.00000000E+00  0.00000000E+00
  0.00000000E+00  0.00000000E+00  0.00000000E+00  0.00000000E+00  0.00000000E+00
  0.00000000E+00  0.00000000E+00  0.00000000E+00  0.00000000E+00  0.00000000E+00
  0.00000000E+00  0.00000000E+00  0.00000000E+00  0.00000000E+00  0.00000000E+00
  0.00000000E+00  0.00000000E+00  0.00000000E+00  0.00000000E+00  0.00000000E+00
  0.00000000E+00  0.00000000E+00  0.00000000E+00  0.00000000E+00  0.00000000E+00
  0.00000000E+00
Coordinates of each shell                  R   N=         300
  1.26054370E+00 -7.92075682E+00 -8.44212695E-18  1.26054370E+00 -7.92075682E+00
 -8.44212695E-18  1.26054370E+00 -7.92075682E+00 -8.44212695E-18 -1.26054370E+00
 -7.92075682E+00 -1.23766351E-15 -1.26054370E+00 -7.92075682E+00 -1.23766351E-15
 -1.26054370E+00 -7.92075682E+00 -1.23766351E-15 -2.00801164E+00 -5.27436356E+00
 -1.39394351E-15 -2.00801164E+00 -5.27436356E+00 -1.39394351E-15 -2.00801164E+00
 -5.27436356E+00 -1.39394351E-15  2.00801164E+00 -5.27436356E+00  5.64172531E-16
  2.00801164E+00 -5.27436356E+00  5.64172531E-16  2.00801164E+00 -5.27436356E+00
  5.64172531E-16 -1.58761893E-14 -3.73756836E+00 -2.93999999E-16 -1.58761893E-14
 -3.73756836E+00 -2.93999999E-16 -1.58761893E-14 -3.73756836E+00 -2.93999999E-16
  4.58090022E+00 -4.60144721E+00  1.87158303E-15  4.58090022E+00 -4.60144721E+00
  1.87158303E-15  4.58090022E+00 -4.60144721E+00  1.87158303E-15  5.43960689E+00
 -2.14561016E+00  2.48344571E-15  5.43960689E+00 -2.14561016E+00  2.48344571E-15
  5.43960689E+00 -2.14561016E+00  2.48344571E-15  3.98095942E+00 -1.67643677E-14
  1.94101975E-15  3.98095942E+00 -1.67643677E-14  1.94101975E-15  3.98095942E+00
 -1.67643677E-14  1.94101975E-15  5.43960689E+00  2.14561016E+00  2.82099640E-15
  5.43960689E+00  2.14561016E+00  2.82099640E-15  5.43960689E+00  2.14561016E+00
  2.82099640E-15  7.98254519E+00 -1.30342537E+00  3.78956797E-15  7.98254519E+00
 -1.30342537E+00  3.78956797E-15  7.98254519E+00 -1.30342537E+00  3.78956797E-15
  7.98254519E+00  1.30342537E+00  3.99462485E-15  7.98254519E+00  1.30342537E+00
  3.99462485E-15  7.98254519E+00  1.30342537E+00  3.99462485E-15  4.58090022E+00
  4.60144721E+00  2.59548978E-15  4.58090022E+00  4.60144721E+00  2.59548978E-15
  4.58090022E+00  4.60144721E+00  2.59548978E-15  2.00801164E+00  5.27436356E+00
  1.39394351E-15  2.00801164E+00  5.27436356E+00  1.39394351E-15  2.00801164E+00
  5.27436356E+00  1.39394351E-15  1.58761893E-14  3.73756836E+00  2.93999999E-16
  1.58761893E-14  3.73756836E+00  2.93999999E-16  1.58761893E-14  3.73756836E+00
  2.93999999E-16 -1.26054370E+00  7.92075682E+00  8.44212695E-18 -1.26054370E+00
  7.92075682E+00  8.44212695E-18 -1.26054370E+00  7.92075682E+00  8.44212695E-18
  1.26054370E+00  7.92075682E+00  1.23766351E-15  1.26054370E+00  7.92075682E+00
  1.23766351E-15  1.26054370E+00  7.92075682E+00  1.23766351E-15 -5.43960689E+00
  2.14561016E+00 -2.48344571E-15 -5.43960689E+00  2.14561016E+00 -2.48344571E-15
 -5.43960689E+00  2.14561016E+00 -2.48344571E-15 -3.98095942E+00  1.72084569E-14
 -1.94101975E-15 -3.98095942E+00  1.72084569E-14 -1.94101975E-15 -3.98095942E+00
  1.72084569E-14 -1.94101975E-15 -5.43960689E+00 -2.14561016E+00 -2.82099640E-15
 -5.43960689E+00 -2.14561016E+00 -2.82099640E-15 -5.43960689E+00 -2.14561016E+00
 -2.82099640E-15 -7.98254519E+00 -1.30342537E+00 -3.99462485E-15 -7.98254519E+00
 -1.30342537E+00 -3.99462485E-15 -7.98254519E+00 -1.30342537E+00 -3.99462485E-15
 -7.98254519E+00  1.30342537E+00 -3.78956797E-15 -7.98254519E+00  1.30342537E+00
 -3.78956797E-15 -7.98254519E+00  1.30342537E+00 -3.78956797E-15 -4.58090022E+00
 -4.60144721E+00 -2.59548978E-15 -4.58090022E+00 -4.60144721E+00 -2.59548978E-15
 -4.58090022E+00 -4.60144721E+00 -2.59548978E-15 -4.58090022E+00  4.60144721E+00
 -1.87158303E-15 -4.58090022E+00  4.60144721E+00 -1.87158303E-15 -4.58090022E+00
  4.60144721E+00 -1.87158303E-15 -2.00801164E+00  5.27436356E+00 -5.64172531E-16
 -2.00801164E+00  5.27436356E+00 -5.64172531E-16 -2.00801164E+00  5.27436356E+00
 -5.64172531E-16  2.50460710E+00 -9.52956948E+00  4.71582726E-16  2.50460710E+00
 -9.52956948E+00  4.71582726E-16 -2.50460710E+00 -9.52956948E+00 -1.97078924E-15
 -2.50460710E+00 -9.52956948E+00 -1.97078924E-15  5.96713338E+00 -6.11079981E+00
  2.42875004E-15  5.96713338E+00 -6.11079981E+00  2.42875004E-15  2.06272110E+00
 -8.60422844E-15  1.00573303E-15  2.06272110E+00 -8.60422844E-15  1.00573303E-15
  9.62502522E+00 -2.51265167E+00  4.49528293E-15  9.62502522E+00 -2.51265167E+00
  4.49528293E-15  9.62502522E+00  2.51265167E+00  4.89057715E-15  9.62502522E+00
  2.51265167E+00  4.89057715E-15  5.96713338E+00  6.11079981E+00  3.39011046E-15
  5.96713338E+00  6.11079981E+00  3.39011046E-15 -2.50460710E+00  9.52956948E+00
 -4.71582726E-16 -2.50460710E+00  9.52956948E+00 -4.71582726E-16  2.50460710E+00
  9.52956948E+00  1.97078924E-15  2.50460710E+00  9.52956948E+00  1.97078924E-15
 -2.06272110E+00  9.04831765E-15 -1.00573303E-15 -2.06272110E+00  9.04831765E-15
 -1.00573303E-15 -9.62502522E+00 -2.51265167E+00 -4.89057715E-15 -9.62502522E+00
 -2.51265167E+00 -4.89057715E-15 -9.62502522E+00  2.51265167E+00 -4.49528293E-15
 -9.62502522E+00  2.51265167E+00 -4.49528293E-15 -5.96713338E+00 -6.11079981E+00
 -3.39011046E-15 -5.96713338E+00 -6.11079981E+00 -3.39011046E-15 -5.96713338E+00
  6.11079981E+00 -2.42875004E-15 -5.96713338E+00  6.11079981E+00 -2.42875004E-15
SCF Energy                                 R     -9.828462797152238E+02
Alpha MO coefficients                      R   N=       59536
  1.16973113E-05  9.72417111E-05 -3.80276048E-05  5.92476677E-06 -2.51692364E-16
 -5.34113097E-04  2.62673127E-04 -1.44851735E-04  6.14122147E-16 -1.16973113E-05
 -9.72417111E-05 -3.80276048E-05 -5.92476677E-06  5.58783928E-16  5.34113097E-04
  2.62673127E-04  1.44851735E-04 -8.93058232E-16  4.29170958E-06 -2.78636255E-05
 -6.61801764E-05 -6.92149836E-05 -1.50050433E-16 -3.11752861E-03  1.99997095E-03
 -6.35669458E-04  5.32062251E-16 -4.29170958E-06  2.78636255E-05 -6.61801764E-05
  6.92149836E-05  1.87067604E-16  3.11752861E-03  1.99997095E-03  6.35669459E-04
 -3.75304368E-16  4.19375910E-14  1.03658920E-14  1.09992676E-04 -4.26332284E-15
  5.69052735E-17 -8.72047820E-14 -1.13481380E-03  5.21416943E-14  1.44018883E-16
  2.40990361E-05  1.83420924E-04 -4.60081529E-05  4.78722942E-06  3.95840717E-16
 -6.54925123E-05  3.62884801E-03  7.54689999E-04 -1.16372399E-15  5.45025090E-05
 -4.96381456E-05  4.19088122E-05 -6.57916993E-05 -4.71257263E-16  4.38649092E-03
 -2.49856878E-03  6.18580249E-03  1.53248234E-15  7.04395867E-01  1.84311157E-02
  5.09629309E-04 -3.95761525E-15  5.01411955E-16 -1.94934003E-02 -3.72271534E-03
  4.28380843E-14 -1.23544355E-15  5.45025090E-05 -4.96381456E-05  4.19088122E-05
  6.57916993E-05 -6.28082710E-17  4.38649092E-03 -2.49856878E-03 -6.18580249E-03
  1.07605726E-15  1.35097072E-06  1.01865255E-04  2.81075932E-05  1.16811457E-04
  2.35999031E-16  1.74351083E-05  1.01104877E-03 -1.37228184E-03 -2.97508599E-16
  1.35097072E-06  1.01865255E-04  2.81075932E-05 -1.16811457E-04  2.37110392E-18
  1.74351081E-05  1.01104877E-03  1.37228184E-03 -6.49242211E-16  2.40990361E-05
  1.83420924E-04 -4.60081529E-05 -4.78722942E-06  1.82041191E-16 -6.54925121E-05
  3.62884801E-03 -7.54689999E-04 -1.83773326E-16 -4.29170958E-06  2.78636255E-05
 -6.61801764E-05 -6.92149836E-05  1.56119551E-17  3.11752861E-03  1.99997095E-03
 -6.35669458E-04 -3.41469729E-16  1.82696953E-14 -1.72426055E-16  1.09992676E-04
  3.99237394E-15 -3.43771418E-16 -2.15738775E-14 -1.13481380E-03 -3.70146303E-14
  1.30288892E-15 -1.16973113E-05 -9.72417111E-05 -3.80276048E-05  5.92476677E-06
 -5.20569358E-16  5.34113097E-04  2.62673127E-04 -1.44851735E-04  1.38873100E-15
  1.16973113E-05  9.72417111E-05 -3.80276048E-05 -5.92476677E-06  3.60873692E-16
 -5.34113097E-04  2.62673127E-04  1.44851735E-04 -9.53938075E-16 -5.45025090E-05
  4.96381456E-05  4.19088122E-05 -6.57916993E-05 -1.83339872E-16 -4.38649093E-03
 -2.49856878E-03  6.18580249E-03  3.89747547E-16 -7.04395867E-01 -1.84311157E-02
  5.09629309E-04 -3.61907776E-15  9.77800049E-16  1.94934003E-02 -3.72271534E-03