                  Welcome to Q-Chem
     A Quantum Leap Into The Future Of Chemistry

 Y. Shao, L. Fusti-Molnar, Y. Jung, J. Kussmann, C. Ochsenfeld,
 S. T. Brown, A. T. B. Gilbert, L. V. Slipchenko,S. V. Levchenko,
 D. P. O'Neill, R. A. DiStasio Jr., R. C. Lochan, T. Wang,
 G. J. O. Beran, N. A. Besley, J. M. Herbert, C. Y. Lin,
 T. Van Voorhis, S. H. Chien, A. Sodt, R. P. Steele, 
 V. A. Rassolov, P. E. Maslen, P. P. Korambath, R. D. Adamson,
 B. Austin, J. Baker, E. F. C. Byrd, H. Dachsel, R. J. Doerksen,
 A. Dreuw, B. D. Dunietz, A. D. Dutoi, T. R. Furlani,
 S. R. Gwaltney, A. Heyden, S. Hirata, C.-P. Hsu, G. Kedziora,
 R. Z. Khaliullin, P. Klunzinger, A. M. Lee, M. S. Lee, W. Liang,
 I. Lotan, N. Nair, B. Peters, E. I. Proynov, P. A. Pieniazek, 
 Y. M. Rhee, J. Ritchie, E. Rosta, C. D. Sherrill, 
 A. C. Simmonett, J. E. Subotnik, H. L. Woodcock III,
 W. Zhang, A. T. Bell, A. K. Chakraborty, D. M. Chipman,
 F. J. Keil, A. Warshel, W. J. Hehre, H. F. Schaefer III,
 J. Kong, A. I. Krylov, P. M. W. Gill, M. Head-Gordon,
 Q-Chem, Version 3.1, Q-Chem, Inc., Pittsburgh, PA (2007).

 Additional authors for Version 3.1: 
 Z. Gan, Y. Zhao, N. E. Schultz, D. Truhlar, E. Epifanovsky and M. Oana.

 Additional authors for Version 3.2: 
 R. Baer, B. R. Brooks, D. Casanova, J.-D. Chai, C.-L. Cheng, 
 C. Cramer, D. Crittenden, A. Ghysels, G. Hawkins, E. G. Hohenstein, 
 C. Kelley, W. Kurlancheek, D. Liotard, E. Livshits, P. Manohar, 
 A. Marenich, D. Neuhauser, R. Olson, M. A. Rohrdanz, K. S. Thanthiriwatte, 
 A. J. W. Thom, V. Vanovschi, C. F. Williams, Q. Wu and Z.-Q. You. 


 Intel X86 Linux Version

 Q-chem begins on Mon Apr 18 13:15:00 2011  


theFileMan(): MAXOPENFILES=16334 MAX_SUB_FILE_NUM=16
Maximum size of a physical file is 2.0 GB, maximum size of a tmp-file is 32.0 GB


Total Memory Limit in MB = 3000
Mega-Array Size in MB = 256

--------------------------------------------------------------
User input:
--------------------------------------------------------------
$comment
MP2/6-31+G(2df,p)-Excited state calculations using Maximum Overlap Method
$end 

$molecule
0 1
O           0.015544   -1.908324   -0.069877
C          -1.067917   -1.353367   -0.000231
C           1.875919    0.340816   -0.043935
C           0.899814    1.213986    0.253045
C          -1.347622    0.069073   -0.196962
C          -0.514565    1.128341   -0.067884
H          -1.968894   -1.948906    0.241222
H          -2.396073    0.288154   -0.370868
H          -0.999812    2.097364   -0.155206
H           1.681711   -0.578875   -0.571940
H           2.896650    0.565302    0.237922
H           1.181406    2.140152    0.744668
$end

$rem
JOBTYPE            sp
EXCHANGE           HF
CORRELATION        MP2 
MEM_STATIC         256
MEM_TOTAL          3000
BASIS            6-31+G(2df,p) 
$END

--------------------------------------------------------------
 Writing REM_CC_EA            0
 ----------------------------------------------------
       Standard Nuclear Orientation (Angstroms)
    I     Atom         X            Y            Z
 ----------------------------------------------------
    1      O       1.294477    -1.266876    -0.011276
    2      C       1.635389    -0.100527    -0.111893
    3      C      -1.613746    -1.061041     0.130739
    4      C      -1.590019     0.245114    -0.180386
    5      C       0.811362     1.085410     0.122219
    6      C      -0.535437     1.212457     0.070420
    7      H       2.672173     0.138151    -0.416586
    8      H       1.385136     1.996899     0.254361
    9      H      -0.896586     2.233174     0.169433
   10      H      -0.784480    -1.550300     0.615797
   11      H      -2.495329    -1.647352    -0.094605
   12      H      -2.482017     0.675951    -0.624785
 ----------------------------------------------------
 Molecular Point Group                 C1    NOp =  1
 Largest Abelian Subgroup              C1    NOp =  1
 Nuclear Repulsion Energy =   205.4900269299 hartrees
 There are       22 alpha and       22 beta electrons
 Requested basis set is 6-31+G(2df,p)
 There are 60 shells and 222 basis functions

Total QAlloc Memory Limit   3000 MB
Mega-Array Size       251 MB
MEM_STATIC part       256 MB

finished with qalloc call

                       Distance Matrix (Angstroms)
             O (  1)   C (  2)   C (  3)   C (  4)   C (  5)   C (  6)
   C (  2)  1.219309
   C (  3)  2.918955  3.396813
   C (  4)  3.261140  3.244598  1.342909
   C (  5)  2.405093  1.462967  3.238592  2.562089
   C (  6)  3.082589  2.543551  2.516979  1.452859  1.353770
   H (  7)  2.009085  1.106673  4.484053  4.270072  2.156438  3.417612
   H (  8)  3.275822  2.143819  4.284807  3.479842  1.085122  2.082735
   H (  9)  4.133251  3.454881  3.371598  2.134386  2.058320  1.087242
   H ( 10)  2.189889  2.913270  1.078118  2.122808  3.120465  2.827063
   H ( 11)  3.809769  4.410873  1.082464  2.099613  4.295255  3.470867
   H ( 12)  4.291023  4.221256  2.083711  1.085712  3.401767  2.135491
             H (  7)   H (  8)   H (  9)   H ( 10)   H ( 11)
   H (  8)  2.358299
   H (  9)  4.179543  2.295495
   H ( 10)  3.983106  4.173786  3.811363
   H ( 11)  5.476748  5.334825  4.205256  1.855019
   H ( 12)  5.186352  4.180033  2.359940  3.062167  2.383067
 
 Job number = 2, Threshold = 1.00E-08
Symmetry turned off temporarily
 Using the largest function pair in Schwarz integrals
Total number of integrals generated =          935399
Symmetry turned back on
 A cutoff of  1.0D-08 yielded   1603 shell pairs
 There are  22922 function pairs ( 26843 Cartesian)
Evaluating contribution to one-electron hamiltonian from nuclear
 Job number = 11, Threshold = 1.00E-08
Total number of integrals generated =          322116
 Smallest overlap matrix eigenvalue = 2.65E-05

 Q-Chem warning in module mkSTV.C, line 194:

 Overlap eigenvalue is smaller than square root of threshold

 Multipole matrices computed through 2nd order

  Scale SEOQF with 1.000000e-01/1.000000e-01/1.000000e-01

 Standard Electronic Orientation quadrupole field applied
 Nucleus-field energy     =     0.0000000066 hartrees
 Guess from superposition of atomic densities
 Warning:  Energy on first SCF cycle will be non-variational
 A restricted Hartree-Fock SCF calculation will be
 performed using Pulay DIIS extrapolation
 SCF converges when DIIS error is below 1.0E-05
Using Integral Screening
Finding J and K together
 ML is being used
 Job number = 22, Threshold = 1.00E-08
Total number of integrals generated =        21490295
Fock build time:  1.20 s (CPU) 1.24 s (wall)
DIIS Errors:  Max 8.60E-01 RMS 3.78E-02

Current DIIS subspace size = 1
REM_GRID_RESTART_DIIS = 0

 ---------------------------------------
  Cycle       Energy         DIIS Error
 ---------------------------------------
    1    -269.3932343107      3.78E-02  00000
Ite = 2 IFIte = 1 Thresh = 1.00e-08
Finding J and K together
 Job number = 22, Threshold = 1.00E-08
Approximate symmetry reduction factor = 1.000000
Total number of integrals generated =       356992048
Fock build time:  8.57 s (CPU) 8.65 s (wall)
DIIS Errors:  Max 1.83E-01 RMS 4.17E-03

Current DIIS subspace size = 2
REM_GRID_RESTART_DIIS = 0

    2    -267.5494641176      4.17E-03  00000
Ite = 3 IFIte = 2 Thresh = 1.00e-08
Using dP: JK
Finding J and K together
 ML is being used
 Job number = 22, Threshold = 1.00E-08
Total number of integrals generated =       319978969
Fock build time:  7.80 s (CPU) 7.84 s (wall)
DIIS Errors:  Max 1.46E-01 RMS 3.13E-03

Current DIIS subspace size = 3
REM_GRID_RESTART_DIIS = 0

    3    -267.6255005956      3.13E-03  00000
Ite = 4 IFIte = 3 Thresh = 1.00e-08
Using dP: JK
Finding J and K together
 ML is being used
 Job number = 22, Threshold = 1.00E-08
Total number of integrals generated =       307779545
Fock build time:  7.52 s (CPU) 7.59 s (wall)
DIIS Errors:  Max 2.17E-02 RMS 5.29E-04

Current DIIS subspace size = 4
REM_GRID_RESTART_DIIS = 0

    4    -267.6702796746      5.29E-04  00000
Ite = 5 IFIte = 4 Thresh = 1.00e-08
Using dP: JK
Finding J and K together
 ML is being used
 Job number = 22, Threshold = 1.00E-08
Total number of integrals generated =       298468283
Fock build time:  7.31 s (CPU) 7.36 s (wall)
DIIS Errors:  Max 4.70E-03 RMS 1.30E-04

Current DIIS subspace size = 5
REM_GRID_RESTART_DIIS = 0

    5    -267.6731472094      1.30E-04  00000
Ite = 6 IFIte = 5 Thresh = 1.00e-08
Using dP: JK
Finding J and K together
 ML is being used
 Job number = 22, Threshold = 1.00E-08
Total number of integrals generated =       274845785
Fock build time:  6.76 s (CPU) 6.80 s (wall)
DIIS Errors:  Max 1.72E-03 RMS 5.36E-05

Current DIIS subspace size = 6
REM_GRID_RESTART_DIIS = 0

    6    -267.6733628552      5.36E-05  00000
Ite = 7 IFIte = 6 Thresh = 1.00e-08
Using dP: JK
Finding J and K together
 ML is being used
 Job number = 22, Threshold = 1.00E-08
Total number of integrals generated =       263732958
Fock build time:  6.49 s (CPU) 6.54 s (wall)
DIIS Errors:  Max 1.24E-03 RMS 2.73E-05

Current DIIS subspace size = 7
REM_GRID_RESTART_DIIS = 0

    7    -267.6734172453      2.73E-05  00000
Ite = 8 IFIte = 7 Thresh = 1.00e-08
Using dP: JK
Finding J and K together
 ML is being used
 Job number = 22, Threshold = 1.00E-08
Total number of integrals generated =       249884198
Fock build time:  6.22 s (CPU) 6.29 s (wall)
DIIS Errors:  Max 5.33E-04 RMS 1.12E-05

Current DIIS subspace size = 8
REM_GRID_RESTART_DIIS = 0

    8    -267.6734301843      1.12E-05  00000
Ite = 9 IFIte = 8 Thresh = 1.00e-08
Using dP: JK
Finding J and K together
 ML is being used
 Job number = 22, Threshold = 1.00E-08
Total number of integrals generated =       232878259
Fock build time:  6.12 s (CPU) 6.21 s (wall)
DIIS Errors:  Max 1.40E-04 RMS 3.70E-06

Current DIIS subspace size = 9
REM_GRID_RESTART_DIIS = 0

    9    -267.6734323052      3.70E-06  00000 Convergence criterion met
 ---------------------------------------
 SCF time:  CPU 58.50 s  wall 59.26 s
Symmetry turned off temporarily
 
 Entering first-index batching code with I1Strt =    1 batch size =   22
 Job number = 52, Threshold = 1.00E-08
Total number of integrals generated =       447499653
 Components of the MP2 correlation energy:
        aaaa  correlation energy =        -0.1242003278 au
        abab  correlation energy =        -0.7819249814 au
        bbbb  correlation energy =        -0.1242003278 au
        non-Brillouin singles    =         0.0000000000 au

 Total  MP2   correlation energy =        -1.0303256370 au
        MP2         total energy =      -268.7037579423 au

Symmetry turned back on
Symmetry turned off temporarily
 Analysis of SCF Wavefunction
 
 --------------------------------------------------------------
                    Orbital Energies (a.u.)
 --------------------------------------------------------------
 
 Alpha MOs
 -- Occupied --
-20.559 -11.339 -11.283 -11.252 -11.251 -11.249  -1.386  -1.110
 -1.028  -0.912  -0.818  -0.716  -0.697  -0.653  -0.639  -0.593
 -0.549  -0.537  -0.515  -0.439  -0.421  -0.340
 -- Virtual --
  0.050   0.073   0.086   0.091   0.100   0.109   0.119   0.128
  0.138   0.148   0.160   0.164   0.172   0.186   0.198   0.213
  0.221   0.231   0.235   0.240   0.249   0.283   0.302   0.314
  0.358   0.359   0.384   0.392   0.402   0.417   0.431   0.436
  0.479   0.516   0.533   0.556   0.620   0.664   0.769   0.790
  0.807   0.820   0.834   0.844   0.855   0.868   0.885   0.899
  0.921   0.955   0.965   0.978   0.994   1.006   1.020   1.047
  1.056   1.089   1.097   1.127   1.138   1.157   1.190   1.211
  1.244   1.261   1.278   1.291   1.303   1.359   1.405   1.423
  1.456   1.501   1.541   1.549   1.580   1.601   1.641   1.682
  1.725   1.742   1.778   1.823   1.854   1.940   1.973   2.008
  2.025   2.080   2.108   2.122   2.205   2.235   2.297   2.338
  2.423   2.485   2.505   2.565   2.579   2.612   2.711   2.752
  2.776   2.880   2.938   3.013   3.042   3.125   3.140   3.157
  3.186   3.195   3.207   3.258   3.291   3.324   3.380   3.405
  3.424   3.439   3.463   3.480   3.518   3.531   3.562   3.572
  3.620   3.638   3.656   3.702   3.721   3.769   3.779   3.826
  3.861   3.908   3.915   3.977   4.018   4.057   4.088   4.140
  4.169   4.231   4.280   4.318   4.411   4.483   4.510   4.570
  4.602   4.610   4.673   4.680   4.689   4.745   4.780   4.797
  4.818   4.865   4.902   4.926   4.958   4.999   5.034   5.061
  5.086   5.104   5.228   5.313   5.338   5.419   5.459   5.509
  5.528   5.546   5.599   5.622   5.719   5.737   5.806   5.921
  5.951   6.004   6.080   6.211   6.308   6.460   6.732   6.924
  7.051   7.319  11.390  11.755  12.229  12.438  12.782  13.770
 --------------------------------------------------------------
 
          Ground-State Mulliken Net Atomic Charges

     Atom                 Charge (a.u.)
  ----------------------------------------
      1 O                    -0.335490
      2 C                     0.071348
      3 C                    -0.344759
      4 C                    -0.189324
      5 C                    -0.228213
      6 C                    -0.070600
      7 H                     0.156792
      8 H                     0.177088
      9 H                     0.180596
     10 H                     0.230077
     11 H                     0.182056
     12 H                     0.170430
  ----------------------------------------
  Sum of atomic charges =     0.000000

 -----------------------------------------------------------------
                    Cartesian Multipole Moments
 -----------------------------------------------------------------
    Charge (ESU x 10^10)
                 0.0000
    Dipole Moment (Debye)
         X      -0.7013      Y       2.6500      Z      -0.1465
       Tot       2.7451
    Quadrupole Moments (Debye-Ang)
        XX     -31.6676     XY       4.0402     YY     -36.1211
        XZ       0.6154     YZ      -0.4757     ZZ     -38.5405
    Octapole Moments (Debye-Ang^2)
       XXX       7.9935    XXY       3.4325    XYY      -8.1788
       YYY       3.8212    XXZ      -4.8018    XYZ       0.7173
       YYZ       2.1794    XZZ       3.9164    YZZ      -3.0627
       ZZZ      -0.5079
    Hexadecapole Moments (Debye-Ang^3)
      XXXX    -431.4124   XXXY       9.9810   XXYY    -119.9338
      XYYY       5.7804   YYYY    -264.0240   XXXZ       8.1999
      XXYZ      -0.4594   XYYZ       1.5806   YYYZ       0.9456
      XXZZ     -90.1440   XYZZ      -3.9847   YYZZ     -57.9203
      XZZZ       0.1389   YZZZ      -1.6178   ZZZZ     -53.2362
 -----------------------------------------------------------------
 JobOver = TRUE
Archival summary:
1\1\x147\SP\MP2\BasisUnspecified\O1C5H6\jxh509\18Apr2011\0\\#,MP2,BasisUnspecified,\\0,1\O\C,1,1.21931\H,2,1.10667,1,119.404\C,2,1.46297,1,127.21,3,-179.646,0\H,4,1.08512,2,113.74,1,-163.178,0\C,4,1.35377,2,129.073,1,23.643,0\H,6,1.08724,4,114.524,2,173.025,0\C,6,1.45286,4,131.778,2,-2.34322,0\H,8,1.08571,6,113.754,4,151.861,0\C,8,1.34291,6,128.347,4,-32.0099,0\H,10,1.07812,8,122.143,6,1.13511,0\H,10,1.08246,8,119.537,6,-177.891,0\\HF=-267.673432\MP2=-268.703758\\@

 Total job time:  147.28s(wall), 144.62s(cpu) 
 Mon Apr 18 13:17:27 2011

        *************************************************************
        *                                                           *
        *  Thank you very much for using Q-Chem.  Have a nice day.  *
        *                                                           *
        *************************************************************


*** MISSION COMPLETED -- STARFLEET OUT ***

 
User input: 2 of 2 
 
                  Welcome to Q-Chem
     A Quantum Leap Into The Future Of Chemistry

 Y. Shao, L. Fusti-Molnar, Y. Jung, J. Kussmann, C. Ochsenfeld,
 S. T. Brown, A. T. B. Gilbert, L. V. Slipchenko,S. V. Levchenko,
 D. P. O'Neill, R. A. DiStasio Jr., R. C. Lochan, T. Wang,
 G. J. O. Beran, N. A. Besley, J. M. Herbert, C. Y. Lin,
 T. Van Voorhis, S. H. Chien, A. Sodt, R. P. Steele, 
 V. A. Rassolov, P. E. Maslen, P. P. Korambath, R. D. Adamson,
 B. Austin, J. Baker, E. F. C. Byrd, H. Dachsel, R. J. Doerksen,
 A. Dreuw, B. D. Dunietz, A. D. Dutoi, T. R. Furlani,
 S. R. Gwaltney, A. Heyden, S. Hirata, C.-P. Hsu, G. Kedziora,
 R. Z. Khaliullin, P. Klunzinger, A. M. Lee, M. S. Lee, W. Liang,
 I. Lotan, N. Nair, B. Peters, E. I. Proynov, P. A. Pieniazek, 
 Y. M. Rhee, J. Ritchie, E. Rosta, C. D. Sherrill, 
 A. C. Simmonett, J. E. Subotnik, H. L. Woodcock III,
 W. Zhang, A. T. Bell, A. K. Chakraborty, D. M. Chipman,
 F. J. Keil, A. Warshel, W. J. Hehre, H. F. Schaefer III,
 J. Kong, A. I. Krylov, P. M. W. Gill, M. Head-Gordon,
 Q-Chem, Version 3.1, Q-Chem, Inc., Pittsburgh, PA (2007).

 Additional authors for Version 3.1: 
 Z. Gan, Y. Zhao, N. E. Schultz, D. Truhlar, E. Epifanovsky and M. Oana.

 Additional authors for Version 3.2: 
 R. Baer, B. R. Brooks, D. Casanova, J.-D. Chai, C.-L. Cheng, 
 C. Cramer, D. Crittenden, A. Ghysels, G. Hawkins, E. G. Hohenstein, 
 C. Kelley, W. Kurlancheek, D. Liotard, E. Livshits, P. Manohar, 
 A. Marenich, D. Neuhauser, R. Olson, M. A. Rohrdanz, K. S. Thanthiriwatte, 
 A. J. W. Thom, V. Vanovschi, C. F. Williams, Q. Wu and Z.-Q. You. 


 Intel X86 Linux Version

 Q-chem begins on Mon Apr 18 13:17:28 2011  


theFileMan(): MAXOPENFILES=16334 MAX_SUB_FILE_NUM=16
Maximum size of a physical file is 2.0 GB, maximum size of a tmp-file is 32.0 GB


Total Memory Limit in MB = 3000
Mega-Array Size in MB = 256

--------------------------------------------------------------
User input:
--------------------------------------------------------------

$molecule
0  1
O           0.015544   -1.908324   -0.069877
C          -1.067917   -1.353367   -0.000231
C           1.875919    0.340816   -0.043935
C           0.899814    1.213986    0.253045
C          -1.347622    0.069073   -0.196962
C          -0.514565    1.128341   -0.067884
H          -1.968894   -1.948906    0.241222
H          -2.396073    0.288154   -0.370868
H          -0.999812    2.097364   -0.155206
H           1.681711   -0.578875   -0.571940
H           2.896650    0.565302    0.237922
H           1.181406    2.140152    0.744668
$end

$rem
SCF_GUESS         READ
SCF_MAX_CYCLES    200
JOBTYPE            opt
EXCHANGE           HF
CORRELATION        MP2 
MEM_STATIC         256
MEM_TOTAL          3000
UNRESTRICTED       TRUE
MOM_START          1
PRINT_ORBITALS      20
BASIS              6-31+G(2df,p)   
$end

$SWAP_OCCUPIED_VIRTUAL
ALPHA  21 26
$END

--------------------------------------------------------------
 Writing REM_CC_EA            0
 ----------------------------------------------------
       Standard Nuclear Orientation (Angstroms)
    I     Atom         X            Y            Z
 ----------------------------------------------------
    1      O       1.294477    -1.266876    -0.011276
    2      C       1.635389    -0.100527    -0.111893
    3      C      -1.613746    -1.061041     0.130739
    4      C      -1.590019     0.245114    -0.180386
    5      C       0.811362     1.085410     0.122219
    6      C      -0.535437     1.212457     0.070420
    7      H       2.672173     0.138151    -0.416586
    8      H       1.385136     1.996899     0.254361
    9      H      -0.896586     2.233174     0.169433
   10      H      -0.784480    -1.550300     0.615797
   11      H      -2.495329    -1.647352    -0.094605
   12      H      -2.482017     0.675951    -0.624785
 ----------------------------------------------------
 Molecular Point Group                 C1    NOp =  1
 Largest Abelian Subgroup              C1    NOp =  1
 Nuclear Repulsion Energy =   205.4900269299 hartrees
 There are       22 alpha and       22 beta electrons
 Requested basis set is 6-31+G(2df,p)
 There are 60 shells and 222 basis functions

Total QAlloc Memory Limit   3000 MB
Mega-Array Size       251 MB
MEM_STATIC part       256 MB

finished with qalloc call
 Job number = 2, Threshold = 1.00E-11
Symmetry turned off temporarily
 Using the largest function pair in Schwarz integrals
Total number of integrals generated =          984550
Symmetry turned back on
 A cutoff of  1.0D-11 yielded   1703 shell pairs
 There are  24118 function pairs ( 28300 Cartesian)
Evaluating contribution to one-electron hamiltonian from nuclear
 Job number = 11, Threshold = 1.00E-11
Total number of integrals generated =          339600
 Smallest overlap matrix eigenvalue = 2.65E-05
 Multipole matrices computed through 2nd order

  Scale SEOQF with 1.000000e-01/1.000000e-01/1.000000e-01

 Standard Electronic Orientation quadrupole field applied
 Nucleus-field energy     =     0.0000000066 hartrees
 Guess MOs from SCF MO coefficient file
Reading MOs from coefficient file
 User-specified occupied guess orbitals will be used
   Alpha:
   1   2   3   4   5   6   7   8   9  10  11  12  13  14  15
  16  17  18  19  20  26  22
Reading MOs from coefficient file
   Beta:
   1   2   3   4   5   6   7   8   9  10  11  12  13  14  15
  16  17  18  19  20  21  22
 An unrestricted Hartree-Fock SCF calculation will be
 performed using Pulay DIIS extrapolation
 SCF converges when DIIS error is below 1.0E-08
Using Integral Screening
Finding J and K together
 ML is being used
 Job number = 22, Threshold = 1.00E-11
Total number of integrals generated =       381186651
Fock build time:  10.76 s (CPU) 10.81 s (wall)
DIIS Errors:  Max 1.09E-01 RMS 2.48E-03

Current DIIS subspace size = 1
REM_GRID_RESTART_DIIS = 0

 MOM overlap:    21.8569111922 / 22
 MOM overlap:    21.9575918920 / 22
 ---------------------------------------
  Cycle       Energy         DIIS Error
 ---------------------------------------
    1    -267.2866567454      2.48E-03  00000
Ite = 2 IFIte = 1 Thresh = 1.00e-11
Finding J and K together
 Job number = 22, Threshold = 1.00E-11
Approximate symmetry reduction factor = 1.000000
Total number of integrals generated =       396925375
Fock build time:  11.04 s (CPU) 11.08 s (wall)
DIIS Errors:  Max 6.91E-02 RMS 1.61E-03

Current DIIS subspace size = 2
REM_GRID_RESTART_DIIS = 0

 MOM overlap:    21.8559089453 / 22
 MOM overlap:    21.9978338942 / 22
    2    -267.3480220930      1.61E-03  00000
Ite = 3 IFIte = 2 Thresh = 1.00e-11
Using dP: JK
Finding J and K together
 ML is being used
 Job number = 22, Threshold = 1.00E-11
Total number of integrals generated =       373243459
Fock build time:  10.53 s (CPU) 10.57 s (wall)
DIIS Errors:  Max 3.45E-02 RMS 8.30E-04

Current DIIS subspace size = 3
REM_GRID_RESTART_DIIS = 0

 MOM overlap:    21.8755609096 / 22
 MOM overlap:    21.9991645482 / 22
    3    -267.3987001475      8.30E-04  00000
Ite = 4 IFIte = 3 Thresh = 1.00e-11
Using dP: JK
Finding J and K together
 ML is being used
 Job number = 22, Threshold = 1.00E-11
Total number of integrals generated =       371697323
Fock build time:  10.46 s (CPU) 10.50 s (wall)
DIIS Errors:  Max 2.56E-02 RMS 8.60E-04

Current DIIS subspace size = 4
REM_GRID_RESTART_DIIS = 0

 MOM overlap:    21.8397724785 / 22
 MOM overlap:    21.9995615542 / 22
    4    -267.4457822850      8.60E-04  00000
Ite = 5 IFIte = 4 Thresh = 1.00e-11
Using dP: JK
Finding J and K together
 ML is being used
 Job number = 22, Threshold = 1.00E-11
Total number of integrals generated =       372070974
Fock build time:  10.48 s (CPU) 10.52 s (wall)
DIIS Errors:  Max 2.69E-02 RMS 1.08E-03

Current DIIS subspace size = 5
REM_GRID_RESTART_DIIS = 0

 MOM overlap:    21.9965289400 / 22
 MOM overlap:    21.9999867414 / 22
    5    -267.4986140329      1.08E-03  00000
Ite = 6 IFIte = 5 Thresh = 1.00e-11
Using dP: JK
Finding J and K together
 ML is being used
 Job number = 22, Threshold = 1.00E-11
Total number of integrals generated =       360071065
Fock build time:  10.13 s (CPU) 10.17 s (wall)
DIIS Errors:  Max 2.65E-02 RMS 1.09E-03

Current DIIS subspace size = 6
REM_GRID_RESTART_DIIS = 0

 MOM overlap:    21.8822669647 / 22
 MOM overlap:    21.9998318205 / 22
    6    -267.5046068746      1.09E-03  00000
Ite = 7 IFIte = 6 Thresh = 1.00e-11
Using dP: JK
Finding J and K together
 ML is being used
 Job number = 22, Threshold = 1.00E-11
Total number of integrals generated =       371561071
Fock build time:  10.46 s (CPU) 10.52 s (wall)
DIIS Errors:  Max 3.59E-02 RMS 1.30E-03

Current DIIS subspace size = 7
REM_GRID_RESTART_DIIS = 0

 MOM overlap:    21.9917898896 / 22
 MOM overlap:    21.9999986199 / 22
    7    -267.5307068705      1.30E-03  00000
Ite = 8 IFIte = 7 Thresh = 1.00e-11
Using dP: JK
Finding J and K together
 ML is being used
 Job number = 22, Threshold = 1.00E-11
Total number of integrals generated =       364473808
Fock build time:  10.28 s (CPU) 10.34 s (wall)
DIIS Errors:  Max 3.32E-02 RMS 1.25E-03

Current DIIS subspace size = 8
REM_GRID_RESTART_DIIS = 0

 MOM overlap:    21.9842971853 / 22
 MOM overlap:    21.9999629024 / 22
    8    -267.5269446752      1.25E-03  00000
Ite = 9 IFIte = 8 Thresh = 1.00e-11
Using dP: JK
Finding J and K together
 ML is being used
 Job number = 22, Threshold = 1.00E-11
Total number of integrals generated =       366711764
Fock build time:  10.35 s (CPU) 10.39 s (wall)
DIIS Errors:  Max 2.79E-02 RMS 1.13E-03

Current DIIS subspace size = 9
REM_GRID_RESTART_DIIS = 0

 MOM overlap:    21.9218626302 / 22
 MOM overlap:    21.9997034646 / 22
    9    -267.5245916172      1.13E-03  00000
Ite = 10 IFIte = 9 Thresh = 1.00e-11
Using dP: JK
Finding J and K together
 ML is being used
 Job number = 22, Threshold = 1.00E-11
Total number of integrals generated =       371970149
Fock build time:  10.48 s (CPU) 10.54 s (wall)
DIIS Errors:  Max 3.70E-02 RMS 1.16E-03

Current DIIS subspace size = 10
REM_GRID_RESTART_DIIS = 0

 MOM overlap:    21.9999843966 / 22
 MOM overlap:    21.9999989000 / 22
   10    -267.5388933846      1.16E-03  00000
Ite = 11 IFIte = 10 Thresh = 1.00e-11
Using dP: JK
Finding J and K together
 ML is being used
 Job number = 22, Threshold = 1.00E-11
Total number of integrals generated =       341387849
Fock build time:  9.62 s (CPU) 9.67 s (wall)
DIIS Errors:  Max 3.71E-02 RMS 1.16E-03

Current DIIS subspace size = 11
REM_GRID_RESTART_DIIS = 0

NextCycle: DoReset = 1
 MOM overlap:    21.9441643731 / 22
 MOM overlap:    21.9891435699 / 22
   11    -267.5389284260      1.16E-03  00000
Ite = 12 IFIte = 11 Thresh = 1.00e-11
Using dP: JK
Finding J and K together
 ML is being used
 Job number = 22, Threshold = 1.00E-11
Total number of integrals generated =       373094703
Fock build time:  10.50 s (CPU) 10.54 s (wall)
DIIS Errors:  Max 2.10E-02 RMS 7.07E-04

Current DIIS subspace size = 2
REM_GRID_RESTART_DIIS = 0

 MOM overlap:    21.9878877589 / 22
 MOM overlap:    21.9988739549 / 22
   12    -267.5791330611      7.07E-04  00000
Ite = 13 IFIte = 12 Thresh = 1.00e-11
Using dP: JK
Finding J and K together
 ML is being used
 Job number = 22, Threshold = 1.00E-11
Total number of integrals generated =       368222678
Fock build time:  10.40 s (CPU) 10.45 s (wall)
DIIS Errors:  Max 1.04E-02 RMS 3.38E-04

Current DIIS subspace size = 3
REM_GRID_RESTART_DIIS = 0

 MOM overlap:    21.9775472350 / 22
 MOM overlap:    21.9981152129 / 22
   13    -267.5934747629      3.38E-04  00000
Ite = 14 IFIte = 13 Thresh = 1.00e-11
Using dP: JK
Finding J and K together
 ML is being used
 Job number = 22, Threshold = 1.00E-11
Total number of integrals generated =       368970937
Fock build time:  10.44 s (CPU) 10.49 s (wall)
DIIS Errors:  Max 1.61E-02 RMS 2.89E-04

Current DIIS subspace size = 4
REM_GRID_RESTART_DIIS = 0

 MOM overlap:    21.9928111287 / 22
 MOM overlap:    21.9993757416 / 22
   14    -267.6073745323      2.89E-04  00000
Ite = 15 IFIte = 14 Thresh = 1.00e-11
Using dP: JK
Finding J and K together
 ML is being used
 Job number = 22, Threshold = 1.00E-11
Total number of integrals generated =       365238114
Fock build time:  10.29 s (CPU) 10.34 s (wall)
DIIS Errors:  Max 1.86E-02 RMS 2.68E-04

Current DIIS subspace size = 5
REM_GRID_RESTART_DIIS = 0

 MOM overlap:    21.9891282406 / 22
 MOM overlap:    21.9994839393 / 22
   15    -267.6144429922      2.68E-04  00000
Ite = 16 IFIte = 0 Thresh = 1.00e-11
Finding J and K together
 Job number = 22, Threshold = 1.00E-11
Approximate symmetry reduction factor = 1.000000
Total number of integrals generated =       396925375
Fock build time:  11.04 s (CPU) 11.09 s (wall)
DIIS Errors:  Max 2.03E-02 RMS 2.84E-04

Current DIIS subspace size = 6
REM_GRID_RESTART_DIIS = 0

 MOM overlap:    21.9679661867 / 22
 MOM overlap:    21.9990907213 / 22
   16    -267.6228595256      2.84E-04  00000
Ite = 17 IFIte = 1 Thresh = 1.00e-11
Using dP: JK
Finding J and K together
 ML is being used
 Job number = 22, Threshold = 1.00E-11
Total number of integrals generated =       368076976
Fock build time:  10.36 s (CPU) 10.40 s (wall)
DIIS Errors:  Max 1.73E-02 RMS 2.46E-04

Current DIIS subspace size = 7
REM_GRID_RESTART_DIIS = 0

 MOM overlap:    21.9138289406 / 22
 MOM overlap:    21.9974716124 / 22
   17    -267.6096481462      2.46E-04  00000
Ite = 18 IFIte = 2 Thresh = 1.00e-11
Using dP: JK
Finding J and K together
 ML is being used
 Job number = 22, Threshold = 1.00E-11
Total number of integrals generated =       371228040
Fock build time:  10.42 s (CPU) 10.50 s (wall)
DIIS Errors:  Max 2.71E-02 RMS 4.29E-04

Current DIIS subspace size = 8
REM_GRID_RESTART_DIIS = 0

 MOM overlap:    21.9999181086 / 22
 MOM overlap:    21.9999920678 / 22
   18    -267.5941798258      4.29E-04  00000
Ite = 19 IFIte = 3 Thresh = 1.00e-11
Using dP: JK
Finding J and K together
 ML is being used
 Job number = 22, Threshold = 1.00E-11
Total number of integrals generated =       350912776
Fock build time:  9.88 s (CPU) 9.94 s (wall)
DIIS Errors:  Max 2.40E-02 RMS 3.83E-04

Current DIIS subspace size = 9
REM_GRID_RESTART_DIIS = 0

 MOM overlap:    21.9907762153 / 22
 MOM overlap:    21.9993528702 / 22
   19    -267.5942739124      3.83E-04  00000
Ite = 20 IFIte = 4 Thresh = 1.00e-11
Using dP: JK
Finding J and K together
 ML is being used
 Job number = 22, Threshold = 1.00E-11
Total number of integrals generated =       365620502
Fock build time:  10.27 s (CPU) 10.33 s (wall)
DIIS Errors:  Max 1.76E-02 RMS 2.79E-04

Current DIIS subspace size = 10
REM_GRID_RESTART_DIIS = 0

 MOM overlap:    21.9931633442 / 22
 MOM overlap:    21.9990141917 / 22
   20    -267.5943141785      2.79E-04  00000
Ite = 21 IFIte = 5 Thresh = 1.00e-11
Using dP: JK
Finding J and K together
 ML is being used
 Job number = 22, Threshold = 1.00E-11
Total number of integrals generated =       364854187
Fock build time:  10.26 s (CPU) 10.30 s (wall)
DIIS Errors:  Max 1.19E-02 RMS 1.91E-04

Current DIIS subspace size = 11
REM_GRID_RESTART_DIIS = 0

 MOM overlap:    21.9977122816 / 22
 MOM overlap:    21.9983902948 / 22
   21    -267.5952713774      1.91E-04  00000
Ite = 22 IFIte = 6 Thresh = 1.00e-11
Using dP: JK
Finding J and K together
 ML is being used
 Job number = 22, Threshold = 1.00E-11
Total number of integrals generated =       363139157
Fock build time:  10.21 s (CPU) 10.30 s (wall)
DIIS Errors:  Max 6.76E-03 RMS 1.08E-04

Current DIIS subspace size = 12
REM_GRID_RESTART_DIIS = 0

 MOM overlap:    21.9987000593 / 22
 MOM overlap:    21.9983904530 / 22
   22    -267.5967956347      1.08E-04  00000
Ite = 23 IFIte = 7 Thresh = 1.00e-11
Using dP: JK
Finding J and K together
 ML is being used
 Job number = 22, Threshold = 1.00E-11
Total number of integrals generated =       361699012
Fock build time:  10.16 s (CPU) 10.20 s (wall)
DIIS Errors:  Max 1.29E-03 RMS 2.91E-05

Current DIIS subspace size = 13
REM_GRID_RESTART_DIIS = 0

 MOM overlap:    21.9997439340 / 22
 MOM overlap:    21.9996584963 / 22
   23    -267.5979494983      2.91E-05  00000
Ite = 24 IFIte = 8 Thresh = 1.00e-11
Using dP: JK
Finding J and K together
 ML is being used
 Job number = 22, Threshold = 1.00E-11
Total number of integrals generated =       355170966
Fock build time:  10.00 s (CPU) 10.05 s (wall)
DIIS Errors:  Max 1.18E-03 RMS 2.69E-05

Current DIIS subspace size = 14
REM_GRID_RESTART_DIIS = 0

 MOM overlap:    21.9998415036 / 22
 MOM overlap:    21.9998690777 / 22
   24    -267.5983558984      2.69E-05  00000
Ite = 25 IFIte = 9 Thresh = 1.00e-11
Using dP: JK
Finding J and K together
 ML is being used
 Job number = 22, Threshold = 1.00E-11
Total number of integrals generated =       351901612
Fock build time:  9.90 s (CPU) 9.99 s (wall)
DIIS Errors:  Max 1.74E-03 RMS 3.16E-05

Current DIIS subspace size = 15
REM_GRID_RESTART_DIIS = 0

 MOM overlap:    21.9995502338 / 22
 MOM overlap:    21.9996334328 / 22
   25    -267.5985765558      3.16E-05  00000
Ite = 26 IFIte = 10 Thresh = 1.00e-11
Using dP: JK
Finding J and K together
 ML is being used
 Job number = 22, Threshold = 1.00E-11
Total number of integrals generated =       355409721
Fock build time:  10.01 s (CPU) 10.05 s (wall)
DIIS Errors:  Max 4.84E-04 RMS 1.26E-05

Current DIIS subspace size = 15
REM_GRID_RESTART_DIIS = 0

 MOM overlap:    21.9990996423 / 22
 MOM overlap:    21.9989782304 / 22
   26    -267.5989110257      1.26E-05  00000
Ite = 27 IFIte = 11 Thresh = 1.00e-11
Using dP: JK
Finding J and K together
 ML is being used
 Job number = 22, Threshold = 1.00E-11
Total number of integrals generated =       356946647
Fock build time:  10.04 s (CPU) 10.10 s (wall)
DIIS Errors:  Max 1.40E-03 RMS 2.41E-05

Current DIIS subspace size = 15
REM_GRID_RESTART_DIIS = 0

 MOM overlap:    21.9999694185 / 22
 MOM overlap:    21.9999741065 / 22
   27    -267.5991869657      2.41E-05  00000
Ite = 28 IFIte = 12 Thresh = 1.00e-11
Using dP: JK
Finding J and K together
 ML is being used
 Job number = 22, Threshold = 1.00E-11
Total number of integrals generated =       346058539
Fock build time:  9.77 s (CPU) 9.84 s (wall)
DIIS Errors:  Max 6.51E-04 RMS 1.13E-05

Current DIIS subspace size = 15
REM_GRID_RESTART_DIIS = 0

 MOM overlap:    21.9999860055 / 22
 MOM overlap:    21.9999951222 / 22
   28    -267.5992030271      1.13E-05  00000
Ite = 29 IFIte = 13 Thresh = 1.00e-11
Using dP: JK
Finding J and K together
 ML is being used
 Job number = 22, Threshold = 1.00E-11
Total number of integrals generated =       342305227
Fock build time:  9.67 s (CPU) 9.77 s (wall)
DIIS Errors:  Max 9.58E-05 RMS 2.09E-06

Current DIIS subspace size = 15
REM_GRID_RESTART_DIIS = 0

 MOM overlap:    21.9999964895 / 22
 MOM overlap:    21.9999968960 / 22
   29    -267.5992068614      2.09E-06  00000
Ite = 30 IFIte = 14 Thresh = 1.00e-11
Using dP: JK
Finding J and K together
 ML is being used
 Job number = 22, Threshold = 1.00E-11
Total number of integrals generated =       333644736
Fock build time:  9.39 s (CPU) 9.48 s (wall)
DIIS Errors:  Max 5.23E-05 RMS 1.08E-06

Current DIIS subspace size = 15
REM_GRID_RESTART_DIIS = 0

 MOM overlap:    21.9999978795 / 22
 MOM overlap:    21.9999977867 / 22
   30    -267.5992088162      1.08E-06  00000
Ite = 31 IFIte = 0 Thresh = 1.00e-11
Finding J and K together
 Job number = 22, Threshold = 1.00E-11
Approximate symmetry reduction factor = 1.000000
Total number of integrals generated =       396925375
Fock build time:  11.06 s (CPU) 11.12 s (wall)
DIIS Errors:  Max 9.17E-06 RMS 2.69E-07

Current DIIS subspace size = 15
REM_GRID_RESTART_DIIS = 0

 MOM overlap:    21.9999999637 / 22
 MOM overlap:    21.9999999640 / 22
   31    -267.5992094166      2.69E-07  00000
Ite = 32 IFIte = 1 Thresh = 1.00e-11
Using dP: JK
Finding J and K together
 ML is being used
 Job number = 22, Threshold = 1.00E-11
Total number of integrals generated =       312494251
Fock build time:  8.83 s (CPU) 8.88 s (wall)
DIIS Errors:  Max 5.69E-06 RMS 1.50E-07

Current DIIS subspace size = 15
REM_GRID_RESTART_DIIS = 0

 MOM overlap:    21.9999999920 / 22
 MOM overlap:    21.9999999926 / 22
   32    -267.5992094432      1.50E-07  00000
Ite = 33 IFIte = 2 Thresh = 1.00e-11
Using dP: JK
Finding J and K together
 ML is being used
 Job number = 22, Threshold = 1.00E-11
Total number of integrals generated =       304807120
Fock build time:  8.61 s (CPU) 8.65 s (wall)
DIIS Errors:  Max 2.99E-06 RMS 5.90E-08

Current DIIS subspace size = 15
REM_GRID_RESTART_DIIS = 0

 MOM overlap:    21.9999999982 / 22
 MOM overlap:    21.9999999983 / 22
   33    -267.5992094491      5.90E-08  00000
Ite = 34 IFIte = 3 Thresh = 1.00e-11
Using dP: JK
Finding J and K together
 ML is being used
 Job number = 22, Threshold = 1.00E-11
Total number of integrals generated =       292283794
Fock build time:  8.24 s (CPU) 8.31 s (wall)
DIIS Errors:  Max 1.59E-06 RMS 2.90E-08

Current DIIS subspace size = 15
REM_GRID_RESTART_DIIS = 0

 MOM overlap:    21.9999999995 / 22
 MOM overlap:    21.9999999995 / 22
   34    -267.5992094499      2.90E-08  00000
Ite = 35 IFIte = 4 Thresh = 1.00e-11
Using dP: JK
Finding J and K together
 ML is being used
 Job number = 22, Threshold = 1.00E-11
Total number of integrals generated =       280152598
Fock build time:  8.89 s (CPU) 8.94 s (wall)
DIIS Errors:  Max 8.63E-07 RMS 1.34E-08

Current DIIS subspace size = 15
REM_GRID_RESTART_DIIS = 0

 MOM overlap:    21.9999999999 / 22
 MOM overlap:    22.0000000000 / 22
   35    -267.5992094500      1.34E-08  00000
Ite = 36 IFIte = 5 Thresh = 1.00e-11
Using dP: JK
Finding J and K together
 ML is being used
 Job number = 22, Threshold = 1.00E-11
Total number of integrals generated =       263260655
Fock build time:  8.68 s (CPU) 8.76 s (wall)
DIIS Errors:  Max 4.51E-07 RMS 6.73E-09

Current DIIS subspace size = 15
REM_GRID_RESTART_DIIS = 0

 MOM overlap:    22.0000000000 / 22
 MOM overlap:    22.0000000000 / 22
   36    -267.5992094501      6.73E-09  00000 Convergence criterion met
 ---------------------------------------
 <S^2> = 1.4307
 SCF time:  CPU 365.48 s  wall 369.28 s
Symmetry turned off temporarily
 
 Entering first-index batching code with I1Strt =    1 batch size =   22
 Job number = 52, Threshold = 1.00E-11
Total number of integrals generated =       461516400
 Job number = 152, Threshold = 1.00E-11
Total number of integrals generated =       290545227
 Entering first-index batching code with I1Strt =  223 batch size =   22
 Job number = 52, Threshold = 1.00E-11
Total number of integrals generated =       461516400
 Components of the MP2 correlation energy:
        aaaa  correlation energy =        -0.1150481802 au
        abab  correlation energy =        -0.7145498995 au
        bbbb  correlation energy =        -0.1137014194 au
        non-Brillouin singles    =         0.0000000000 au

 Total  MP2   correlation energy =        -0.9432994991 au
        MP2         total energy =      -268.5425089492 au

 In EndOfL doing spin case            1  of            2
 In EndOfL doing spin case            2  of            2
 Job number = 22, Threshold = 1.00E-11
Total number of integrals generated =       396925375
  Entering Z-vector solver.
 Job number = 30, Threshold = 1.00E-11
   1         0           1      0.000762    0.000762
 Job number = 30, Threshold = 1.00E-11
   2         0           1      0.000537    0.000537
 Job number = 30, Threshold = 1.00E-11
   3         0           1      0.000264    0.000264
 Job number = 30, Threshold = 1.00E-11
   4         0           1      0.000189    0.000189
 Job number = 30, Threshold = 1.00E-11
   5         0           1      0.000167    0.000167
 Job number = 30, Threshold = 1.00E-11
   6         0           1      0.000316    0.000316
 Job number = 30, Threshold = 1.00E-11
   7         0           1      0.000305    0.000305
 Job number = 30, Threshold = 1.00E-11
   8         0           1      0.000080    0.000080
 Job number = 30, Threshold = 1.00E-11
   9         0           1      0.000040    0.000040
 Job number = 30, Threshold = 1.00E-11
  10         0           1      0.000017    0.000017
 Job number = 30, Threshold = 1.00E-11
  11         0           1      0.000006    0.000006
 Job number = 30, Threshold = 1.00E-11
  12         0           1      0.000003    0.000003
 Job number = 30, Threshold = 1.00E-11
  13         1           0      0.000000    0.000000    Roots Converged
 Warning: cannot do save MP2 spin density
 Job number = 22, Threshold = 1.00E-11
 Job number = 153, Threshold = 1.00E-11
Total number of integrals generated =       290545227
Symmetry turned back on
Symmetry turned off temporarily
 Analysis of SCF Wavefunction
 
 --------------------------------------------------------------
                    Orbital Energies (a.u.)
 --------------------------------------------------------------
 
 Alpha MOs
 -- Occupied --
-20.633 -11.307 -11.244 -11.240 -11.233 -11.231  -1.401  -1.095
 -1.014  -0.915  -0.811  -0.712  -0.680  -0.664  -0.658  -0.607
 -0.581  -0.527  -0.502  -0.455  -0.375  -0.280
 -- Virtual --
  0.046   0.075   0.087   0.092   0.102   0.116   0.118   0.124
  0.139   0.147   0.156   0.162   0.169   0.182   0.201   0.215
  0.226   0.231   0.239   0.241   0.253   0.288   0.302   0.318
  0.341   0.352   0.373   0.383   0.394   0.413   0.439   0.449
  0.483   0.528   0.535   0.567   0.626   0.673   0.769   0.798
  0.809   0.816   0.838   0.841   0.851   0.877   0.890   0.901
  0.929   0.962   0.973   0.976   1.001   1.014   1.020   1.040
  1.064   1.090   1.106   1.127   1.145   1.148   1.199   1.217
  1.244   1.263   1.273   1.292   1.311   1.351   1.388   1.410
  1.435   1.468   1.528   1.540   1.578   1.602   1.638   1.682
  1.730   1.742   1.762   1.825   1.856   1.945   1.980   2.010
  2.030   2.088   2.118   2.131   2.216   2.244   2.311   2.341
  2.434   2.491   2.503   2.568   2.578   2.620   2.722   2.761
  2.780   2.888   2.948   3.024   3.051   3.138   3.152   3.166
  3.196   3.201   3.220   3.269   3.300   3.328   3.391   3.412
  3.434   3.449   3.468   3.487   3.532   3.544   3.575   3.581
  3.631   3.643   3.666   3.716   3.734   3.774   3.789   3.838
  3.870   3.919   3.923   3.991   4.027   4.063   4.095   4.148
  4.174   4.232   4.292   4.327   4.416   4.480   4.504   4.562
  4.590   4.608   4.675   4.679   4.695   4.750   4.782   4.807
  4.825   4.871   4.900   4.930   4.962   5.016   5.043   5.054
  5.081   5.119   5.239   5.297   5.345   5.418   5.456   5.465
  5.475   5.550   5.601   5.626   5.708   5.719   5.798   5.901
  5.932   5.986   6.093   6.222   6.305   6.416   6.678   6.872
  7.048   7.263  11.408  11.768  12.248  12.453  12.803  13.700
 
 Beta MOs
 -- Occupied --
-20.664 -11.285 -11.258 -11.244 -11.226 -11.220  -1.501  -1.092
 -1.020  -0.881  -0.824  -0.763  -0.728  -0.669  -0.647  -0.616
 -0.590  -0.556  -0.513  -0.488  -0.434  -0.359
 -- Virtual --
  0.075   0.086   0.088   0.091   0.103   0.110   0.122   0.132
  0.138   0.153   0.165   0.168   0.179   0.200   0.204   0.221
  0.233   0.237   0.242   0.252   0.254   0.292   0.314   0.324
  0.341   0.355   0.376   0.382   0.386   0.416   0.438   0.447
  0.470   0.519   0.536   0.559   0.624   0.667   0.773   0.801
  0.807   0.834   0.843   0.865   0.872   0.878   0.908   0.914
  0.939   0.959   0.967   0.989   1.003   1.014   1.035   1.046
  1.070   1.094   1.102   1.134   1.150   1.165   1.208   1.212
  1.244   1.257   1.269   1.290   1.312   1.341   1.381   1.399
  1.431   1.445   1.492   1.525   1.577   1.600   1.626   1.681
  1.717   1.733   1.768   1.825   1.861   1.945   1.984   2.007
  2.035   2.093   2.123   2.134   2.211   2.244   2.312   2.343
  2.434   2.493   2.503   2.572   2.584   2.621   2.723   2.759
  2.775   2.888   2.949   3.023   3.052   3.137   3.152   3.166
  3.199   3.203   3.223   3.270   3.305   3.339   3.396   3.413
  3.441   3.453   3.467   3.496   3.535   3.546   3.580   3.589
  3.634   3.650   3.663   3.720   3.735   3.781   3.792   3.837
  3.869   3.917   3.923   3.991   4.026   4.059   4.094   4.149
  4.171   4.220   4.295   4.327   4.394   4.470   4.495   4.529
  4.578   4.608   4.673   4.682   4.701   4.756   4.782   4.804
  4.847   4.869   4.910   4.935   4.964   5.014   5.040   5.051
  5.080   5.118   5.238   5.279   5.350   5.402   5.412   5.443
  5.466   5.547   5.595   5.621   5.695   5.717   5.787   5.881
  5.928   5.979   6.091   6.220   6.303   6.419   6.649   6.859
  7.045   7.236  11.409  11.770  12.256  12.453  12.803  13.682
 --------------------------------------------------------------
 
 
          Ground-State Mulliken Net Atomic Charges

     Atom                 Charge (a.u.)    Spin (a.u.)
  --------------------------------------------------------
      1 O                     0.012357      -0.752061
      2 C                    -0.185383       0.624951
      3 C                    -0.431210       0.040958
      4 C                    -0.138830       0.050960
      5 C                    -0.263012      -0.181058
      6 C                    -0.128636       0.378621
      7 H                     0.236729      -0.137770
      8 H                     0.185200      -0.011603
      9 H                     0.172455      -0.017603
     10 H                     0.185402       0.012927
     11 H                     0.183850       0.007343
     12 H                     0.171078      -0.015665
  --------------------------------------------------------
  Sum of atomic charges =     0.000000
  Sum of spin   charges =     0.000000

 -----------------------------------------------------------------
                    Cartesian Multipole Moments
 -----------------------------------------------------------------
    Charge (ESU x 10^10)
                 0.0000
    Dipole Moment (Debye)
         X       1.1827      Y       0.8195      Z      -0.3972
       Tot       1.4927
    Quadrupole Moments (Debye-Ang)
        XX     -30.5328     XY       1.0043     YY     -35.2354
        XZ      -0.0018     YZ      -0.3087     ZZ     -40.6120
    Octapole Moments (Debye-Ang^2)
       XXX      17.0278    XXY      -0.4577    XYY      -1.0575
       YYY      -0.2211    XXZ      -8.3405    XYZ       1.2423
       YYZ       1.9464    XZZ       3.4522    YZZ      -3.7343
       ZZZ      -0.7712
    Hexadecapole Moments (Debye-Ang^3)
      XXXX    -421.4244   XXXY      -2.2087   XXYY    -115.9344
      XYYY      -1.3414   YYYY    -267.3978   XXXZ       0.7538
      XXYZ       0.0566   XYYZ       0.8194   YYYZ       1.8288
      XXZZ     -96.7899   XYZZ      -5.5754   YYZZ     -61.3399
      XZZZ       0.1296   YZZZ      -1.5959   ZZZZ     -61.7681
 -----------------------------------------------------------------
 DrvMan is completing analytic gradient of the MP2 energy
 Job number = 111, Threshold = 1.00E-11
Total number of integrals generated =          339600
 Relaxed dipole moment
            1
    1   0.4653048
    2   0.3224274
    3  -0.1562733
	Magnitude:	 0.587 au	 1.493 Debye
 MP2 relaxed dipole moment
            1
    1   0.4653048
    2   0.3224274
    3  -0.1562733
 MP2 energy read as -268.542509
 Full Analytical Gradient of MP2 Energy
             1             2             3             4             5
    1    0.01869485    0.00011162    0.00148997   -0.00382387   -0.03317393
    2    0.08043773   -0.13478616   -0.03381092    0.02837438    0.03880655
    3    0.00326973   -0.00747951    0.00968009   -0.01242744    0.01555158
             6             7             8             9            10
    1    0.01800486    0.00462518   -0.00257989   -0.00147973    0.00106561
    2   -0.00093805    0.01113916    0.00522704    0.00203182    0.00165593
    3   -0.00257350   -0.00778959    0.00367573    0.00034721   -0.00212457
            11            12
    1   -0.00269566   -0.00023901
    2    0.00091041    0.00095211
    3    0.00027180   -0.00040154
 Gradient time:  CPU 0.06 s  wall 0.06 s
 ------------------------------------------------------------------------------
                     drvman        : Timing summary (seconds)
 ------------------------------------------------------------------------------
     job step          cpu (% of tot)      sys (% of tot)     wall (% of tot)
 ------------------------------------------------------------------------------
 ------------------------------------------------------------------------------
   Grand Totals     0.6000E-01          0.0000E+00          0.6423E-01
 ------------------------------------------------------------------------------
 Geometry Optimization Parameters
   NAtoms,    NIC,     NZ,  NCons,   NDum,   NFix, NCnnct, MaxDiis
       12      66       0       0       0       0       0       0


** GEOMETRY OPTIMIZATION IN DELOCALIZED INTERNAL COORDINATES **
   Searching for a Minimum

   Optimization Cycle:   1

                       Coordinates (Angstroms)
     ATOM              X           Y           Z
    1  O           1.294477   -1.266876   -0.011276
    2  C           1.635389   -0.100527   -0.111893
    3  C          -1.613746   -1.061041    0.130739
    4  C          -1.590019    0.245114   -0.180386
    5  C           0.811362    1.085410    0.122219
    6  C          -0.535437    1.212457    0.070420
    7  H           2.672173    0.138151   -0.416586
    8  H           1.385136    1.996899    0.254361
    9  H          -0.896586    2.233174    0.169433
   10  H          -0.784480   -1.550300    0.615797
   11  H          -2.495329   -1.647352   -0.094605
   12  H          -2.482017    0.675951   -0.624785
   Point Group: c1    Number of degrees of freedom:  30


   Energy is   -268.542508949


 Attempting to Generate Delocalized Internal Coordinates

 30 Hessian modes will be used to form the next step
  Hessian Eigenvalues:
     0.014077    0.014079    0.015415    0.021719    0.022113    0.023011
     0.028522    0.029959    0.029968    0.159546    0.159822    0.159848
     0.160000    0.160000    0.160000    0.220001    0.220063    0.220092
     0.220196    0.329548    0.351333    0.353129    0.353825    0.356982
     0.362227    0.365953    0.378729    0.542270    0.565581    0.956899

 Minimum Search - Taking Simple RFO Step
 Searching for Lamda that Minimizes Along All modes
 Value Taken    Lamda =  -0.02335064
 Calculated Step too Large.  Step scaled by  0.688241
 Step Taken.  Stepsize is  0.300000

                             Maximum     Tolerance    Cnvgd?
         Gradient           0.063664      0.000300      NO
         Displacement       0.152822      0.001200      NO
         Energy change     *********      0.000001      NO


 New Cartesian Coordinates Obtained by Inverse Iteration

 Displacement from previous Coordinates is:  0.436105
 Writing REM_CC_EA           12
 ----------------------------------------------------
       Standard Nuclear Orientation (Angstroms)
    I     Atom         X            Y            Z
 ----------------------------------------------------
    1      O       1.262266    -1.261738    -0.178775
    2      C       1.621555    -0.066128    -0.121536
    3      C      -1.610089    -1.045334     0.157106
    4      C      -1.587538     0.234767    -0.176269
    5      C       0.814385     1.074743     0.106743
    6      C      -0.539710     1.207212     0.055154
    7      H       2.683681     0.142552    -0.302830
    8      H       1.403898     1.967146     0.268949
    9      H      -0.897705     2.226764     0.151674
   10      H      -0.793251    -1.522909     0.675607
   11      H      -2.479209    -1.645059    -0.073719
   12      H      -2.477360     0.649045    -0.638665
 ----------------------------------------------------
 Molecular Point Group                 C1    NOp =  1
 Largest Abelian Subgroup              C1    NOp =  1
 Nuclear Repulsion Energy =   206.2568535272 hartrees
 There are       22 alpha and       22 beta electrons
 JobOver = FALSE
 Applying Cartesian multipole field
    Component          Value
    ---------          -----
     (2,0,0)        1.00000E-11
     (0,2,0)        2.00000E-11
     (0,0,2)       -3.00000E-11
 Nucleus-field energy     =     0.0000000065 hartrees
 Requested basis set is 6-31+G(2df,p)
 There are 60 shells and 222 basis functions
 Job number = 2, Threshold = 1.00E-11
Symmetry turned off temporarily
Total number of integrals generated =          988168
Symmetry turned back on
 A cutoff of  1.0D-11 yielded   1706 shell pairs
 There are  24166 function pairs ( 28366 Cartesian)
Evaluating contribution to one-electron hamiltonian from nuclear
 Job number = 11, Threshold = 1.00E-11
Total number of integrals generated =          340392
 Smallest overlap matrix eigenvalue = 2.62E-05
 Multipole matrices computed through 2nd order
 Guess MOs from SCF MO coefficient file
Reading MOs from coefficient file
Reading MOs from coefficient file
 An unrestricted Hartree-Fock SCF calculation will be
 performed using Pulay DIIS extrapolation
 SCF converges when DIIS error is below 1.0E-08
Using Integral Screening
Finding J and K together
 ML is being used
 Job number = 22, Threshold = 1.00E-11
Total number of integrals generated =       381872195
Fock build time:  13.18 s (CPU) 13.24 s (wall)
DIIS Errors:  Max 1.65E-01 RMS 2.90E-03

Current DIIS subspace size = 1
REM_GRID_RESTART_DIIS = 0

 MOM overlap:    22.0207294004 / 22
 MOM overlap:    21.9981741487 / 22
 ---------------------------------------
  Cycle       Energy         DIIS Error
 ---------------------------------------
    1    -267.6255279072      2.90E-03  00000
Ite = 2 IFIte = 1 Thresh = 1.00e-11
Finding J and K together
 Job number = 22, Threshold = 1.00E-11
Total number of integrals generated =       398709841
Fock build time:  12.99 s (CPU) 13.06 s (wall)
DIIS Errors:  Max 1.74E-02 RMS 3.58E-04

Current DIIS subspace size = 2
REM_GRID_RESTART_DIIS = 0

 MOM overlap:    21.9989036837 / 22
 MOM overlap:    21.9994088644 / 22
    2    -267.6093486146      3.58E-04  00000
Ite = 3 IFIte = 2 Thresh = 1.00e-11
Using dP: JK
Finding J and K together
 ML is being used
 Job number = 22, Threshold = 1.00E-11
Total number of integrals generated =       363651166
Fock build time:  12.07 s (CPU) 12.13 s (wall)
DIIS Errors:  Max 5.93E-03 RMS 1.57E-04

Current DIIS subspace size = 3
REM_GRID_RESTART_DIIS = 0

 MOM overlap:    21.9997285792 / 22
 MOM overlap:    21.9998573770 / 22
    3    -267.6113480787      1.57E-04  00000
Ite = 4 IFIte = 3 Thresh = 1.00e-11
Using dP: JK
Finding J and K together
 ML is being used
 Job number = 22, Threshold = 1.00E-11
Total number of integrals generated =       357507231
Fock build time:  10.86 s (CPU) 10.90 s (wall)
DIIS Errors:  Max 2.89E-03 RMS 7.33E-05

Current DIIS subspace size = 4
REM_GRID_RESTART_DIIS = 0

 MOM overlap:    21.9996716112 / 22
 MOM overlap:    21.9999353103 / 22
    4    -267.6118562476      7.33E-05  00000
Ite = 5 IFIte = 4 Thresh = 1.00e-11
Using dP: JK
Finding J and K together
 ML is being used
 Job number = 22, Threshold = 1.00E-11
Total number of integrals generated =       355775488
Fock build time:  10.09 s (CPU) 10.13 s (wall)
DIIS Errors:  Max 3.06E-03 RMS 4.38E-05

Current DIIS subspace size = 5
REM_GRID_RESTART_DIIS = 0

 MOM overlap:    21.9997807846 / 22
 MOM overlap:    21.9999863752 / 22
    5    -267.6121747562      4.38E-05  00000
Ite = 6 IFIte = 5 Thresh = 1.00e-11
Using dP: JK
Finding J and K together
 ML is being used
 Job number = 22, Threshold = 1.00E-11
Total number of integrals generated =       352240897
Fock build time:  10.42 s (CPU) 10.49 s (wall)
DIIS Errors:  Max 3.78E-03 RMS 4.59E-05

Current DIIS subspace size = 6
REM_GRID_RESTART_DIIS = 0

 MOM overlap:    21.9999798058 / 22
 MOM overlap:    21.9999995933 / 22
    6    -267.6123783594      4.59E-05  00000
Ite = 7 IFIte = 6 Thresh = 1.00e-11
Using dP: JK
Finding J and K together
 ML is being used
 Job number = 22, Threshold = 1.00E-11
Total number of integrals generated =       340537523
Fock build time:  10.38 s (CPU) 10.44 s (wall)
DIIS Errors:  Max 3.60E-03 RMS 4.47E-05

Current DIIS subspace size = 7
REM_GRID_RESTART_DIIS = 0

 MOM overlap:    21.9983231543 / 22
 MOM overlap:    21.9999896559 / 22
    7    -267.6123181880      4.47E-05  00000
Ite = 8 IFIte = 7 Thresh = 1.00e-11
Using dP: JK
Finding J and K together
 ML is being used
 Job number = 22, Threshold = 1.00E-11
Total number of integrals generated =       358119738
Fock build time:  10.84 s (CPU) 10.93 s (wall)
DIIS Errors:  Max 2.19E-03 RMS 3.27E-05

Current DIIS subspace size = 8
REM_GRID_RESTART_DIIS = 0

 MOM overlap:    21.9972523257 / 22
 MOM overlap:    21.9999657627 / 22
    8    -267.6118811508      3.27E-05  00000
Ite = 9 IFIte = 8 Thresh = 1.00e-11
Using dP: JK
Finding J and K together
 ML is being used
 Job number = 22, Threshold = 1.00E-11
Total number of integrals generated =       359697865
Fock build time:  10.73 s (CPU) 10.78 s (wall)
DIIS Errors:  Max 7.76E-04 RMS 1.83E-05

Current DIIS subspace size = 9
REM_GRID_RESTART_DIIS = 0

 MOM overlap:    21.9996508216 / 22
 MOM overlap:    21.9999878468 / 22
    9    -267.6116139717      1.83E-05  00000
Ite = 10 IFIte = 9 Thresh = 1.00e-11
Using dP: JK
Finding J and K together
 ML is being used
 Job number = 22, Threshold = 1.00E-11
Total number of integrals generated =       352721247
Fock build time:  10.50 s (CPU) 10.55 s (wall)
DIIS Errors:  Max 5.15E-04 RMS 9.23E-06

Current DIIS subspace size = 10
REM_GRID_RESTART_DIIS = 0

 MOM overlap:    21.9999287567 / 22
 MOM overlap:    21.9999920520 / 22
   10    -267.6116042799      9.23E-06  00000
Ite = 11 IFIte = 10 Thresh = 1.00e-11
Using dP: JK
Finding J and K together
 ML is being used
 Job number = 22, Threshold = 1.00E-11
Total number of integrals generated =       347989146
Fock build time:  10.39 s (CPU) 10.47 s (wall)
DIIS Errors:  Max 2.64E-04 RMS 4.50E-06

Current DIIS subspace size = 11
REM_GRID_RESTART_DIIS = 0

 MOM overlap:    21.9999961105 / 22
 MOM overlap:    21.9999985435 / 22
   11    -267.6116126984      4.50E-06  00000
Ite = 12 IFIte = 11 Thresh = 1.00e-11
Using dP: JK
Finding J and K together
 ML is being used
 Job number = 22, Threshold = 1.00E-11
Total number of integrals generated =       337151526
Fock build time:  10.07 s (CPU) 10.12 s (wall)
DIIS Errors:  Max 1.52E-04 RMS 2.53E-06

Current DIIS subspace size = 12
REM_GRID_RESTART_DIIS = 0

 MOM overlap:    21.9999973925 / 22
 MOM overlap:    21.9999989503 / 22
   12    -267.6116152154      2.53E-06  00000
Ite = 13 IFIte = 12 Thresh = 1.00e-11
Using dP: JK
Finding J and K together
 ML is being used
 Job number = 22, Threshold = 1.00E-11
Total number of integrals generated =       335741066
Fock build time:  10.05 s (CPU) 10.12 s (wall)
DIIS Errors:  Max 5.59E-05 RMS 1.11E-06

Current DIIS subspace size = 13
REM_GRID_RESTART_DIIS = 0

 MOM overlap:    21.9999995817 / 22
 MOM overlap:    21.9999997665 / 22
   13    -267.6116164094      1.11E-06  00000
Ite = 14 IFIte = 13 Thresh = 1.00e-11
Using dP: JK
Finding J and K together
 ML is being used
 Job number = 22, Threshold = 1.00E-11
Total number of integrals generated =       326079944
Fock build time:  9.74 s (CPU) 9.84 s (wall)
DIIS Errors:  Max 2.61E-05 RMS 6.47E-07

Current DIIS subspace size = 14
REM_GRID_RESTART_DIIS = 0

 MOM overlap:    21.9999998279 / 22
 MOM overlap:    21.9999998808 / 22
   14    -267.6116166765      6.47E-07  00000
Ite = 15 IFIte = 14 Thresh = 1.00e-11
Using dP: JK
Finding J and K together
 ML is being used
 Job number = 22, Threshold = 1.00E-11
Total number of integrals generated =       321770739
Fock build time:  9.62 s (CPU) 9.69 s (wall)
DIIS Errors:  Max 1.24E-05 RMS 3.53E-07

Current DIIS subspace size = 15
REM_GRID_RESTART_DIIS = 0

 MOM overlap:    21.9999998769 / 22
 MOM overlap:    21.9999998942 / 22
   15    -267.6116167977      3.53E-07  00000
Ite = 16 IFIte = 0 Thresh = 1.00e-11
Finding J and K together
 Job number = 22, Threshold = 1.00E-11
Total number of integrals generated =       398709841
Fock build time:  12.52 s (CPU) 12.58 s (wall)
DIIS Errors:  Max 5.75E-06 RMS 1.72E-07

Current DIIS subspace size = 15
REM_GRID_RESTART_DIIS = 0

 MOM overlap:    21.9999999835 / 22
 MOM overlap:    21.9999999837 / 22
   16    -267.6116168641      1.72E-07  00000
Ite = 17 IFIte = 1 Thresh = 1.00e-11
Using dP: JK
Finding J and K together
 ML is being used
 Job number = 22, Threshold = 1.00E-11
Total number of integrals generated =       307289261
Fock build time:  10.69 s (CPU) 10.75 s (wall)
DIIS Errors:  Max 3.87E-06 RMS 9.57E-08

Current DIIS subspace size = 15
REM_GRID_RESTART_DIIS = 0

 MOM overlap:    21.9999999906 / 22
 MOM overlap:    21.9999999914 / 22
   17    -267.6116168789      9.57E-08  00000
Ite = 18 IFIte = 2 Thresh = 1.00e-11
Using dP: JK
Finding J and K together
 ML is being used
 Job number = 22, Threshold = 1.00E-11
Total number of integrals generated =       302420165
Fock build time:  11.00 s (CPU) 11.08 s (wall)
DIIS Errors:  Max 2.33E-06 RMS 5.33E-08

Current DIIS subspace size = 15
REM_GRID_RESTART_DIIS = 0

 MOM overlap:    21.9999999948 / 22
 MOM overlap:    21.9999999950 / 22
   18    -267.6116168857      5.33E-08  00000
Ite = 19 IFIte = 3 Thresh = 1.00e-11
Using dP: JK
Finding J and K together
 ML is being used
 Job number = 22, Threshold = 1.00E-11
Total number of integrals generated =       297293700
Fock build time:  10.32 s (CPU) 10.41 s (wall)
DIIS Errors:  Max 1.15E-06 RMS 2.87E-08

Current DIIS subspace size = 15
REM_GRID_RESTART_DIIS = 0

 MOM overlap:    21.9999999987 / 22
 MOM overlap:    21.9999999987 / 22
   19    -267.6116168886      2.87E-08  00000
Ite = 20 IFIte = 4 Thresh = 1.00e-11
Using dP: JK
Finding J and K together
 ML is being used
 Job number = 22, Threshold = 1.00E-11
Total number of integrals generated =       285487306
Fock build time:  9.80 s (CPU) 9.86 s (wall)
DIIS Errors:  Max 5.25E-07 RMS 1.64E-08

Current DIIS subspace size = 15
REM_GRID_RESTART_DIIS = 0

 MOM overlap:    21.9999999997 / 22
 MOM overlap:    21.9999999997 / 22
   20    -267.6116168893      1.64E-08  00000
Ite = 21 IFIte = 5 Thresh = 1.00e-11
Using dP: JK
Finding J and K together
 ML is being used
 Job number = 22, Threshold = 1.00E-11
Total number of integrals generated =       275547305
Fock build time:  9.24 s (CPU) 9.31 s (wall)
DIIS Errors:  Max 2.43E-07 RMS 8.21E-09

Current DIIS subspace size = 15
REM_GRID_RESTART_DIIS = 0

 MOM overlap:    21.9999999998 / 22
 MOM overlap:    21.9999999998 / 22
   21    -267.6116168896      8.21E-09  00000 Convergence criterion met
 ---------------------------------------
 <S^2> = 1.3748
 SCF time:  CPU 227.79 s  wall 229.46 s
Symmetry turned off temporarily
 
 Entering first-index batching code with I1Strt =    1 batch size =   22
 Job number = 52, Threshold = 1.00E-11
Total number of integrals generated =       464464884
 Job number = 152, Threshold = 1.00E-11
Total number of integrals generated =       291817494
 Entering first-index batching code with I1Strt =  223 batch size =   22
 Job number = 52, Threshold = 1.00E-11
Total number of integrals generated =       464464884
 Components of the MP2 correlation energy:
        aaaa  correlation energy =        -0.1146973812 au
        abab  correlation energy =        -0.7155793452 au
        bbbb  correlation energy =        -0.1138631900 au
        non-Brillouin singles    =         0.0000000000 au

 Total  MP2   correlation energy =        -0.9441399163 au
        MP2         total energy =      -268.5557568059 au

 In EndOfL doing spin case            1  of            2
 In EndOfL doing spin case            2  of            2
 Job number = 22, Threshold = 1.00E-11
Total number of integrals generated =       398709841
  Entering Z-vector solver.
 Job number = 30, Threshold = 1.00E-11
   1         0           1      0.000728    0.000728
 Job number = 30, Threshold = 1.00E-11
   2         0           1      0.000509    0.000509
 Job number = 30, Threshold = 1.00E-11
   3         0           1      0.000253    0.000253
 Job number = 30, Threshold = 1.00E-11
   4         0           1      0.000179    0.000179
 Job number = 30, Threshold = 1.00E-11
   5         0           1      0.000153    0.000153
 Job number = 30, Threshold = 1.00E-11
   6         0           1      0.000227    0.000227
 Job number = 30, Threshold = 1.00E-11
   7         0           1      0.000854    0.000854
 Job number = 30, Threshold = 1.00E-11
   8         0           1      0.000109    0.000109
 Job number = 30, Threshold = 1.00E-11
   9         0           1      0.000050    0.000050
 Job number = 30, Threshold = 1.00E-11
  10         0           1      0.000021    0.000021
 Job number = 30, Threshold = 1.00E-11
  11         0           1      0.000008    0.000008
 Job number = 30, Threshold = 1.00E-11
  12         0           1      0.000003    0.000003
 Job number = 30, Threshold = 1.00E-11
  13         0           1      0.000001    0.000001
 Job number = 30, Threshold = 1.00E-11
  14         1           0      0.000000    0.000000    Roots Converged
 Warning: cannot do save MP2 spin density
 Job number = 22, Threshold = 1.00E-11
 Job number = 153, Threshold = 1.00E-11
Total number of integrals generated =       291817494
Symmetry turned back on
Symmetry turned off temporarily
 Analysis of SCF Wavefunction
 
 --------------------------------------------------------------
                    Orbital Energies (a.u.)
 --------------------------------------------------------------
 
 Alpha MOs
 -- Occupied --
-20.630 -11.306 -11.243 -11.236 -11.231 -11.229  -1.380  -1.099
 -1.022  -0.925  -0.809  -0.712  -0.683  -0.659  -0.648  -0.613
 -0.577  -0.530  -0.500  -0.460  -0.380  -0.286
 -- Virtual --
  0.054   0.075   0.087   0.092   0.102   0.116   0.122   0.125
  0.138   0.148   0.156   0.162   0.170   0.183   0.200   0.215
  0.227   0.231   0.240   0.241   0.253   0.287   0.303   0.318
  0.347   0.351   0.375   0.384   0.397   0.415   0.440   0.452
  0.485   0.522   0.534   0.565   0.627   0.677   0.770   0.796
  0.808   0.814   0.839   0.845   0.859   0.874   0.888   0.904
  0.927   0.960   0.967   0.978   1.002   1.010   1.019   1.035
  1.065   1.094   1.106   1.132   1.141   1.155   1.205   1.219
  1.250   1.267   1.279   1.300   1.330   1.340   1.385   1.415
  1.435   1.466   1.531   1.547   1.578   1.622   1.639   1.685
  1.728   1.747   1.770   1.818   1.870   1.957   1.994   2.022
  2.056   2.095   2.124   2.140   2.231   2.261   2.318   2.349
  2.437   2.493   2.502   2.565   2.583   2.622   2.735   2.767
  2.806   2.907   2.943   3.028   3.061   3.143   3.173   3.182
  3.195   3.214   3.225   3.277   3.303   3.330   3.401   3.423
  3.442   3.452   3.476   3.522   3.545   3.555   3.583   3.595
  3.634   3.640   3.686   3.709   3.727   3.784   3.802   3.852
  3.875   3.902   3.914   3.980   4.024   4.069   4.110   4.167
  4.172   4.257   4.290   4.352   4.431   4.483   4.505   4.555
  4.613   4.635   4.670   4.694   4.705   4.745   4.795   4.815
  4.856   4.876   4.898   4.928   4.955   5.008   5.050   5.067
  5.103   5.138   5.239   5.293   5.368   5.443   5.456   5.470
  5.515   5.573   5.626   5.634   5.700   5.718   5.837   5.874
  5.954   5.971   6.108   6.235   6.354   6.391   6.689   6.856
  7.139   7.227  11.411  11.764  12.224  12.470  12.819  13.693
 
 Beta MOs
 -- Occupied --
-20.663 -11.286 -11.252 -11.241 -11.226 -11.218  -1.485  -1.096
 -1.028  -0.888  -0.821  -0.759  -0.727  -0.666  -0.647  -0.613
 -0.590  -0.558  -0.516  -0.492  -0.432  -0.362
 -- Virtual --
  0.075   0.084   0.088   0.091   0.102   0.111   0.124   0.130
  0.138   0.152   0.165   0.169   0.178   0.200   0.204   0.219
  0.234   0.237   0.242   0.252   0.255   0.291   0.313   0.328
  0.347   0.357   0.374   0.384   0.389   0.418   0.441   0.451
  0.471   0.520   0.531   0.559   0.625   0.672   0.775   0.805
  0.806   0.830   0.838   0.864   0.877   0.881   0.909   0.915
  0.938   0.957   0.965   0.996   1.007   1.012   1.034   1.040
  1.073   1.095   1.105   1.141   1.153   1.160   1.212   1.216
  1.247   1.270   1.277   1.295   1.327   1.331   1.373   1.402
  1.431   1.449   1.494   1.531   1.577   1.619   1.632   1.685
  1.711   1.735   1.768   1.819   1.877   1.957   1.999   2.019
  2.060   2.100   2.130   2.144   2.228   2.262   2.319   2.351
  2.437   2.494   2.502   2.572   2.588   2.624   2.739   2.767
  2.799   2.907   2.945   3.028   3.063   3.144   3.173   3.183
  3.199   3.218   3.227   3.277   3.310   3.339   3.406   3.423
  3.449   3.457   3.481   3.525   3.545   3.562   3.589   3.602
  3.637   3.647   3.687   3.712   3.731   3.792   3.804   3.851
  3.869   3.902   3.911   3.984   4.022   4.064   4.111   4.168
  4.171   4.244   4.294   4.351   4.410   4.467   4.496   4.531
  4.597   4.627   4.672   4.683   4.709   4.745   4.797   4.826
  4.873   4.876   4.912   4.933   4.958   5.006   5.042   5.072
  5.096   5.141   5.239   5.278   5.367   5.410   5.420   5.453
  5.507   5.573   5.615   5.630   5.700   5.709   5.816   5.860
  5.951   5.966   6.107   6.233   6.352   6.393   6.657   6.842
  7.139   7.196  11.413  11.765  12.232  12.470  12.820  13.675
 --------------------------------------------------------------
 
 
          Ground-State Mulliken Net Atomic Charges

     Atom                 Charge (a.u.)    Spin (a.u.)
  --------------------------------------------------------
      1 O                    -0.025066      -0.800659
      2 C                    -0.142323       0.550512
      3 C                    -0.427791       0.029257
      4 C                    -0.142413       0.063349
      5 C                    -0.234390      -0.177207
      6 C                    -0.142786       0.479166
      7 H                     0.226762      -0.117178
      8 H                     0.180765      -0.011187
      9 H                     0.172007      -0.020804
     10 H                     0.183167       0.011645
     11 H                     0.182231       0.007668
     12 H                     0.169838      -0.014562
  --------------------------------------------------------
  Sum of atomic charges =     0.000000
  Sum of spin   charges =     0.000000

 -----------------------------------------------------------------
                    Cartesian Multipole Moments
 -----------------------------------------------------------------
    Charge (ESU x 10^10)
                 0.0000
    Dipole Moment (Debye)
         X       1.1263      Y       0.8264      Z      -0.2229
       Tot       1.4146
    Quadrupole Moments (Debye-Ang)
        XX     -30.3813     XY       1.0956     YY     -35.4253
        XZ       0.4577     YZ      -0.3967     ZZ     -40.4065
    Octapole Moments (Debye-Ang^2)
       XXX      18.1049    XXY      -0.6695    XYY      -1.0067
       YYY      -0.6565    XXZ      -6.3290    XYZ       1.1981
       YYZ       3.0850    XZZ       3.2469    YZZ      -3.7807
       ZZZ       1.6361
    Hexadecapole Moments (Debye-Ang^3)
      XXXX    -414.3192   XXXY      -3.1008   XXYY    -114.7908
      XYYY      -2.5510   YYYY    -264.5665   XXXZ       7.8889
      XXYZ      -0.1997   XYYZ       2.5821   YYYZ      -0.4004
      XXZZ     -95.9240   XYZZ      -5.7248   YYZZ     -60.4440
      XZZZ       4.2973   YZZZ      -3.4791   ZZZZ     -61.5408
 -----------------------------------------------------------------
 DrvMan is completing analytic gradient of the MP2 energy
 Job number = 111, Threshold = 1.00E-11
Total number of integrals generated =          340392
 Relaxed dipole moment
            1
    1   0.4431055
    2   0.3251306
    3  -0.0876775
	Magnitude:	 0.557 au	 1.415 Debye
 MP2 relaxed dipole moment
            1
    1   0.4431055
    2   0.3251306
    3  -0.0876775
 MP2 energy read as -268.555757
 Full Analytical Gradient of MP2 Energy
             1             2             3             4             5
    1    0.01036831    0.00464744    0.00009151   -0.00336039   -0.03001183
    2    0.04851029   -0.08457808   -0.00787179    0.00470066    0.02886798
    3    0.00930691   -0.01149956    0.00266180   -0.00418033    0.00982011
             6             7             8             9            10
    1    0.01857577    0.00154662   -0.00014968   -0.00059367    0.00008737
    2   -0.00378452    0.00979484    0.00067272    0.00072953    0.00155049
    3   -0.00267566   -0.00509212    0.00252626    0.00055181   -0.00138702
            11            12
    1   -0.00133949    0.00013805
    2    0.00152087   -0.00011299
    3   -0.00025116    0.00021895
 Gradient time:  CPU 0.06 s  wall 0.06 s
 ------------------------------------------------------------------------------
                     drvman        : Timing summary (seconds)
 ------------------------------------------------------------------------------
     job step          cpu (% of tot)      sys (% of tot)     wall (% of tot)
 ------------------------------------------------------------------------------
 ------------------------------------------------------------------------------
   Grand Totals     0.6000E-01          0.1000E-05          0.6212E-01
 ------------------------------------------------------------------------------
 Geometry Optimization Parameters
   NAtoms,    NIC,     NZ,  NCons,   NDum,   NFix, NCnnct, MaxDiis
       12      66       0       0       0       0       0       0

 Cartesian Hessian Update
 Hessian Updated using BFGS Update


** GEOMETRY OPTIMIZATION IN DELOCALIZED INTERNAL COORDINATES **
   Searching for a Minimum

   Optimization Cycle:   2

                       Coordinates (Angstroms)
     ATOM              X           Y           Z
    1  O           1.262266   -1.261738   -0.178775
    2  C           1.621555   -0.066128   -0.121536
    3  C          -1.610089   -1.045334    0.157106
    4  C          -1.587538    0.234767   -0.176269
    5  C           0.814385    1.074743    0.106743
    6  C          -0.539710    1.207212    0.055154
    7  H           2.683681    0.142552   -0.302830
    8  H           1.403898    1.967146    0.268949
    9  H          -0.897705    2.226764    0.151674
   10  H          -0.793251   -1.522909    0.675607
   11  H          -2.479209   -1.645059   -0.073719
   12  H          -2.477360    0.649045   -0.638665
   Point Group: c1    Number of degrees of freedom:  30


   Energy is   -268.555756806

 Hessian Updated using BFGS Update

 29 Hessian modes will be used to form the next step
  Hessian Eigenvalues:
     0.013172    0.014459    0.015580    0.021759    0.022076    0.023009
     0.028091    0.029967    0.030196    0.135096    0.159817    0.159839
     0.159990    0.163361    0.209419    0.220054    0.220098    0.224821
     0.302061    0.330728    0.351420    0.353216    0.354395    0.357182
     0.362406    0.378612    0.529834    0.650014    0.831636

 Minimum Search - Taking Simple RFO Step
 Searching for Lamda that Minimizes Along All modes
 Value Taken    Lamda =  -0.01911576
 Calculated Step too Large.  Step scaled by  0.600029
 Step Taken.  Stepsize is  0.300000

                             Maximum     Tolerance    Cnvgd?
         Gradient           0.037213      0.000300      NO
         Displacement       0.137006      0.001200      NO
         Energy change     -0.013248      0.000001      NO


 New Cartesian Coordinates Obtained by Inverse Iteration

 Displacement from previous Coordinates is:  0.568070
 Writing REM_CC_EA           12
 ----------------------------------------------------
       Standard Nuclear Orientation (Angstroms)
    I     Atom         X            Y            Z
 ----------------------------------------------------
    1      O       1.157897    -1.244479    -0.339225
    2      C       1.560270    -0.044098    -0.133501
    3      C      -1.556168    -1.029547     0.176969
    4      C      -1.576692     0.240706    -0.180701
    5      C       0.812211     1.072721     0.099998
    6      C      -0.554933     1.234059     0.040259
    7      H       2.644517     0.059752    -0.184527
    8      H       1.422380     1.942128     0.299246
    9      H      -0.912209     2.252682     0.133316
   10      H      -0.728324    -1.470241     0.715086
   11      H      -2.394094    -1.674685    -0.045236
   12      H      -2.473934     0.622063    -0.658246
 ----------------------------------------------------
 Molecular Point Group                 C1    NOp =  1
 Largest Abelian Subgroup              C1    NOp =  1
 Nuclear Repulsion Energy =   207.9594720869 hartrees
 There are       22 alpha and       22 beta electrons
 JobOver = FALSE
 Applying Cartesian multipole field
    Component          Value
    ---------          -----
     (2,0,0)        1.00000E-11
     (0,2,0)        2.00000E-11
     (0,0,2)       -3.00000E-11
 Nucleus-field energy     =     0.0000000062 hartrees
 Requested basis set is 6-31+G(2df,p)
 There are 60 shells and 222 basis functions
 Job number = 2, Threshold = 1.00E-11
Symmetry turned off temporarily
Total number of integrals generated =          990736
Symmetry turned back on
 A cutoff of  1.0D-11 yielded   1717 shell pairs
 There are  24295 function pairs ( 28510 Cartesian)
Evaluating contribution to one-electron hamiltonian from nuclear
 Job number = 11, Threshold = 1.00E-11
Total number of integrals generated =          342120
 Smallest overlap matrix eigenvalue = 2.86E-05
 Multipole matrices computed through 2nd order
 Guess MOs from SCF MO coefficient file
Reading MOs from coefficient file
Reading MOs from coefficient file
 An unrestricted Hartree-Fock SCF calculation will be
 performed using Pulay DIIS extrapolation
 SCF converges when DIIS error is below 1.0E-08
Using Integral Screening
Finding J and K together
 ML is being used
 Job number = 22, Threshold = 1.00E-11
Total number of integrals generated =       385874192
Fock build time:  11.72 s (CPU) 11.78 s (wall)
DIIS Errors:  Max 1.43E-01 RMS 2.84E-03

Current DIIS subspace size = 1
REM_GRID_RESTART_DIIS = 0

 MOM overlap:    22.0103155783 / 22
 MOM overlap:    21.9846135596 / 22
 ---------------------------------------
  Cycle       Energy         DIIS Error
 ---------------------------------------
    1    -267.6138542472      2.84E-03  00000
Ite = 2 IFIte = 1 Thresh = 1.00e-11
Finding J and K together
 Job number = 22, Threshold = 1.00E-11
Total number of integrals generated =       402816717
Fock build time:  11.98 s (CPU) 12.06 s (wall)
DIIS Errors:  Max 1.50E-02 RMS 3.77E-04

Current DIIS subspace size = 2
REM_GRID_RESTART_DIIS = 0

 MOM overlap:    21.9989999888 / 22
 MOM overlap:    21.9992776385 / 22
    2    -267.6165773622      3.77E-04  00000
Ite = 3 IFIte = 2 Thresh = 1.00e-11
Using dP: JK
Finding J and K together
 ML is being used
 Job number = 22, Threshold = 1.00E-11
Total number of integrals generated =       368371700
Fock build time:  11.05 s (CPU) 11.11 s (wall)
DIIS Errors:  Max 6.11E-03 RMS 1.72E-04

Current DIIS subspace size = 3
REM_GRID_RESTART_DIIS = 0

 MOM overlap:    21.9998075598 / 22
 MOM overlap:    21.9998515687 / 22
    3    -267.6185657699      1.72E-04  00000
Ite = 4 IFIte = 3 Thresh = 1.00e-11
Using dP: JK
Finding J and K together
 ML is being used
 Job number = 22, Threshold = 1.00E-11
Total number of integrals generated =       362263552
Fock build time:  10.76 s (CPU) 10.82 s (wall)
DIIS Errors:  Max 2.44E-03 RMS 7.10E-05

Current DIIS subspace size = 4
REM_GRID_RESTART_DIIS = 0

 MOM overlap:    21.9997840159 / 22
 MOM overlap:    21.9999055142 / 22
    4    -267.6190242929      7.10E-05  00000
Ite = 5 IFIte = 4 Thresh = 1.00e-11
Using dP: JK
Finding J and K together
 ML is being used
 Job number = 22, Threshold = 1.00E-11
Total number of integrals generated =       360788478
Fock build time:  10.78 s (CPU) 10.88 s (wall)
DIIS Errors:  Max 2.03E-03 RMS 3.18E-05

Current DIIS subspace size = 5
REM_GRID_RESTART_DIIS = 0

 MOM overlap:    21.9998741321 / 22
 MOM overlap:    21.9999748444 / 22
    5    -267.6192725588      3.18E-05  00000
Ite = 6 IFIte = 5 Thresh = 1.00e-11
Using dP: JK
Finding J and K together
 ML is being used
 Job number = 22, Threshold = 1.00E-11
Total number of integrals generated =       356561776
Fock build time:  10.63 s (CPU) 10.69 s (wall)
DIIS Errors:  Max 2.49E-03 RMS 3.02E-05

Current DIIS subspace size = 6
REM_GRID_RESTART_DIIS = 0

 MOM overlap:    21.9999496748 / 22
 MOM overlap:    21.9999958841 / 22
    6    -267.6193920379      3.02E-05  00000
Ite = 7 IFIte = 6 Thresh = 1.00e-11
Using dP: JK
Finding J and K together
 ML is being used
 Job number = 22, Threshold = 1.00E-11
Total number of integrals generated =       350874230
Fock build time:  10.48 s (CPU) 10.63 s (wall)
[...]

 In EndOfL doing spin case            1  of            2
 In EndOfL doing spin case            2  of            2
 Job number = 22, Threshold = 1.00E-11
Total number of integrals generated =       422531054
  Entering Z-vector solver.
 Job number = 30, Threshold = 1.00E-11
   1         0           1      0.000345    0.000345
 Job number = 30, Threshold = 1.00E-11
   2         0           1      0.000118    0.000118
 Job number = 30, Threshold = 1.00E-11
   3         0           1      0.000057    0.000057
 Job number = 30, Threshold = 1.00E-11
   4         0           1      0.000043    0.000043
 Job number = 30, Threshold = 1.00E-11
   5         0           1      0.000068    0.000068
 Job number = 30, Threshold = 1.00E-11
   6         0           1      0.000125    0.000125
 Job number = 30, Threshold = 1.00E-11
   7         0           1      0.000028    0.000028
 Job number = 30, Threshold = 1.00E-11
   8         0           1      0.000007    0.000007
 Job number = 30, Threshold = 1.00E-11
   9         0           1      0.000002    0.000002
 Job number = 30, Threshold = 1.00E-11
  10         1           0      0.000000    0.000000    Roots Converged
 Warning: cannot do save MP2 spin density
 Job number = 22, Threshold = 1.00E-11
 Job number = 153, Threshold = 1.00E-11
Total number of integrals generated =       311348118
Symmetry turned back on
Symmetry turned off temporarily
 Analysis of SCF Wavefunction
 
 --------------------------------------------------------------
                    Orbital Energies (a.u.)
 --------------------------------------------------------------
 
 Alpha MOs
 -- Occupied --
-20.593 -11.305 -11.294 -11.246 -11.235 -11.230  -1.420  -1.099
 -1.038  -0.900  -0.844  -0.722  -0.707  -0.653  -0.636  -0.607
 -0.574  -0.533  -0.509  -0.471  -0.418  -0.301
 -- Virtual --
  0.078   0.085   0.087   0.095   0.100   0.107   0.123   0.139
  0.148   0.150   0.163   0.165   0.170   0.200   0.205   0.217
  0.220   0.231   0.234   0.250   0.279   0.290   0.320   0.369
  0.380   0.381   0.389   0.402   0.429   0.433   0.449   0.454
  0.466   0.489   0.524   0.532   0.640   0.652   0.724   0.764
  0.798   0.805   0.815   0.851   0.864   0.868   0.896   0.926
  0.942   0.964   0.972   0.987   1.019   1.036   1.044   1.060
  1.097   1.116   1.142   1.146   1.176   1.199   1.228   1.249
  1.288   1.308   1.319   1.349   1.415   1.448   1.465   1.496
  1.516   1.546   1.577   1.645   1.665   1.710   1.738   1.746
  1.777   1.867   1.899   1.920   1.936   1.981   2.028   2.035
  2.084   2.107   2.158   2.189   2.214   2.250   2.346   2.461
  2.480   2.519   2.574   2.643   2.721   2.737   2.780   2.833
  2.872   2.893   3.008   3.038   3.087   3.138   3.170   3.214
  3.232   3.264   3.287   3.324   3.332   3.373   3.380   3.403
  3.426   3.464   3.479   3.539   3.546   3.587   3.609   3.626
  3.650   3.656   3.692   3.738   3.760   3.774   3.817   3.872
  3.929   3.950   3.976   4.002   4.018   4.055   4.143   4.194
  4.322   4.362   4.389   4.424   4.504   4.563   4.604   4.674
  4.741   4.789   4.798   4.825   4.875   4.896   4.910   4.935
  4.940   4.974   4.998   5.012   5.018   5.050   5.067   5.095
  5.139   5.187   5.207   5.241   5.374   5.407   5.522   5.566
  5.642   5.662   5.712   5.791   5.844   5.867   5.876   5.972
  6.003   6.062   6.201   6.302   6.400   6.490   6.663   6.868
  7.111   7.707  11.506  11.981  12.463  12.602  12.968  14.212
 
 Beta MOs
 -- Occupied --
-20.593 -11.305 -11.294 -11.247 -11.235 -11.230  -1.420  -1.099
 -1.038  -0.900  -0.844  -0.722  -0.707  -0.653  -0.636  -0.607
 -0.574  -0.533  -0.509  -0.471  -0.418  -0.300
 -- Virtual --
  0.078   0.085   0.087   0.094   0.100   0.107   0.123   0.139
  0.148   0.150   0.163   0.165   0.170   0.200   0.205   0.217
  0.220   0.231   0.234   0.250   0.279   0.290   0.320   0.369
  0.380   0.381   0.389   0.402   0.429   0.433   0.449   0.454
  0.466   0.489   0.524   0.532   0.640   0.652   0.724   0.764
  0.798   0.805   0.815   0.851   0.864   0.868   0.896   0.926
  0.942   0.964   0.972   0.987   1.019   1.036   1.044   1.060
  1.097   1.116   1.142   1.146   1.176   1.199   1.227   1.249
  1.288   1.308   1.319   1.349   1.415   1.448   1.465   1.496
  1.516   1.546   1.577   1.645   1.665   1.710   1.738   1.746
  1.777   1.867   1.899   1.920   1.936   1.981   2.028   2.035
  2.084   2.107   2.158   2.189   2.214   2.250   2.346   2.461
  2.480   2.519   2.574   2.643   2.721   2.737   2.780   2.833
  2.872   2.893   3.008   3.038   3.087   3.138   3.170   3.214
  3.232   3.264   3.287   3.324   3.332   3.373   3.380   3.403
  3.426   3.464   3.479   3.539   3.546   3.587   3.609   3.626
  3.650   3.656   3.692   3.738   3.760   3.774   3.817   3.872
  3.929   3.950   3.976   4.002   4.018   4.055   4.143   4.194
  4.322   4.362   4.389   4.424   4.504   4.563   4.604   4.674
  4.741   4.789   4.798   4.825   4.874   4.896   4.910   4.935
  4.940   4.975   4.998   5.012   5.018   5.050   5.067   5.095
  5.139   5.187   5.207   5.241   5.374   5.407   5.522   5.566
  5.642   5.662   5.712   5.791   5.844   5.867   5.876   5.972
  6.003   6.062   6.201   6.302   6.400   6.490   6.663   6.868
  7.111   7.707  11.506  11.981  12.463  12.602  12.968  14.212
 --------------------------------------------------------------
 
 
          Ground-State Mulliken Net Atomic Charges

     Atom                 Charge (a.u.)    Spin (a.u.)
  --------------------------------------------------------
      1 O                    -0.166271      -0.000083
      2 C                    -0.043610      -0.077978
      3 C                    -0.291988      -0.009357
      4 C                    -0.193546       0.096205
      5 C                    -0.251922       0.074822
      6 C                    -0.119965      -0.086636
      7 H                     0.181734       0.004853
      8 H                     0.180072      -0.004200
      9 H                     0.175585       0.005239
     10 H                     0.172720       0.002299
     11 H                     0.179890       0.000811
     12 H                     0.177300      -0.005977
  --------------------------------------------------------
  Sum of atomic charges =     0.000000
  Sum of spin   charges =     0.000000

 -----------------------------------------------------------------
                    Cartesian Multipole Moments
 -----------------------------------------------------------------
    Charge (ESU x 10^10)
                 0.0000
    Dipole Moment (Debye)
         X      -0.4507      Y       0.4802      Z       0.4395
       Tot       0.7917
    Quadrupole Moments (Debye-Ang)
        XX     -31.8156     XY       1.7580     YY     -34.9408
        XZ       0.8416     YZ      -0.6663     ZZ     -39.4721
    Octapole Moments (Debye-Ang^2)
       XXX      15.5131    XXY      -5.8073    XYY       1.1601
       YYY      -4.3296    XXZ      -0.2000    XYZ       1.0086
       YYZ       3.7098    XZZ       3.9816    YZZ      -6.0346
       ZZZ       7.9349
    Hexadecapole Moments (Debye-Ang^3)
      XXXX    -264.9502   XXXY      -0.8977   XXYY     -89.5482
      XYYY       5.5308   YYYY    -263.3995   XXXZ       0.0494
      XXYZ      -1.4217   XYYZ       3.2505   YYYZ      -8.6428
      XXZZ     -64.1200   XYZZ       1.9934   YYZZ     -60.9704
      XZZZ      -7.8922   YZZZ     -10.3554   ZZZZ     -70.5525
 -----------------------------------------------------------------
 DrvMan is completing analytic gradient of the MP2 energy
 Job number = 111, Threshold = 1.00E-11
Total number of integrals generated =          349644
 Relaxed dipole moment
            1
    1  -0.1773219
    2   0.1889178
    3   0.1728990
	Magnitude:	 0.311 au	 0.792 Debye
 MP2 relaxed dipole moment
            1
    1  -0.1773219
    2   0.1889178
    3   0.1728990
 MP2 energy read as -268.718456
 Full Analytical Gradient of MP2 Energy
             1             2             3             4             5
    1    0.00000365   -0.00001116   -0.00001723    0.00004322    0.00000940
    2    0.00000579    0.00001614    0.00001205    0.00002861   -0.00003726
    3    0.00000744   -0.00001332   -0.00002778    0.00000005    0.00001501
             6             7             8             9            10
    1   -0.00003307   -0.00000018   -0.00000026    0.00000724    0.00000852
    2   -0.00005127   -0.00000068    0.00000475   -0.00000154    0.00000896
    3   -0.00002283    0.00000568   -0.00000213    0.00000767    0.00001229
            11            12
    1   -0.00000323   -0.00000689
    2    0.00000967    0.00000477
    3    0.00000168    0.00001624
 Gradient time:  CPU 0.06 s  wall 0.08 s
 ------------------------------------------------------------------------------
                     drvman        : Timing summary (seconds)
 ------------------------------------------------------------------------------
     job step          cpu (% of tot)      sys (% of tot)     wall (% of tot)
 ------------------------------------------------------------------------------
 ------------------------------------------------------------------------------
   Grand Totals     0.6000E-01          0.0000E+00          0.8370E-01
 ------------------------------------------------------------------------------
 Geometry Optimization Parameters
   NAtoms,    NIC,     NZ,  NCons,   NDum,   NFix, NCnnct, MaxDiis
       12      66       0       0       0       0       0       0

 Cartesian Hessian Update
 Hessian Updated using BFGS Update


** GEOMETRY OPTIMIZATION IN DELOCALIZED INTERNAL COORDINATES **
   Searching for a Minimum

   Optimization Cycle:  31

                       Coordinates (Angstroms)
     ATOM              X           Y           Z
    1  O           0.401880   -1.136015   -0.481459
    2  C           1.223315   -0.139791   -0.094159
    3  C          -0.914869   -0.997250    0.069569
    4  C          -1.467641    0.363251   -0.204138
    5  C           0.776191    1.092748    0.228388
    6  C          -0.614611    1.390677   -0.036935
    7  H           2.268190   -0.413621   -0.163714
    8  H           1.486394    1.855167    0.510705
    9  H          -0.923554    2.418551   -0.178702
   10  H          -0.831191   -1.172844    1.152260
   11  H          -1.503446   -1.793460   -0.378711
   12  H          -2.499736    0.493648   -0.499664
   Point Group: c1    Number of degrees of freedom:  30


   Energy is   -268.718455538

 Hessian Updated using BFGS Update

 30 Hessian modes will be used to form the next step
  Hessian Eigenvalues:
     0.007944    0.016345    0.020474    0.027392    0.030618    0.042190
     0.070327    0.095295    0.136269    0.150747    0.158189    0.163655
     0.169865    0.201222    0.204975    0.265524    0.327891    0.350989
     0.352892    0.353928    0.356428    0.361967    0.373747    0.438455
     0.473338    0.513737    0.605325    1.007080    1.551872    9.602206

 Minimum Search - Taking Simple RFO Step
 Searching for Lamda that Minimizes Along All modes
 Value Taken    Lamda =   0.00000000
 Step Taken.  Stepsize is  0.001127

                             Maximum     Tolerance    Cnvgd?
         Gradient           0.000043      0.000300     YES
         Displacement       0.000705      0.001200     YES
         Energy change      0.000006      0.000001      NO


                       Distance Matrix (Angstroms)
             O (  1)   C (  2)   C (  3)   C (  4)   C (  5)   C (  6)
   C (  2)  1.348043
   C (  3)  1.434125  2.309518
   C (  4)  2.412429  2.739780  1.493799
   C (  5)  2.368834  1.350226  2.693139  2.398755
   C (  6)  2.759534  2.392401  2.409085  1.345816  1.446889
   H (  7)  2.026309  1.082398  3.244520  3.815967  2.156143  3.403250
   H (  8)  3.332827  2.101174  3.754590  3.385726  1.079525  2.220334
   H (  9)  3.805703  3.340855  3.424823  2.126250  2.193766  1.082622
   H ( 10)  2.047158  2.615674  1.100025  2.145804  2.927477  2.834208
   H ( 11)  2.018182  3.201690  1.086889  2.164061  3.727668  3.323487
   H ( 12)  3.327988  3.798261  2.249134  1.081461  3.408911  2.138334
             H (  7)   H (  8)   H (  9)   H ( 10)   H ( 11)
   H (  8)  2.492679
   H (  9)  4.267160  2.569150
   H ( 10)  3.451719  3.866736  3.831203
   H ( 11)  4.021867  4.800280  4.256444  1.783525
   H ( 12)  4.865092  4.331721  2.508509  2.879252  2.497617
 


 ******************************
 **  OPTIMIZATION CONVERGED  **
 ******************************

Z-matrix Print:
$molecule
0,1
1 O 
2 C  1 1.348043
3 H  2 1.082398 1 112.507738
4 C  2 1.350226 1 122.782272 3 -174.582540 0
5 H  4 1.079525 2 119.295400 1 178.677043 0
6 C  1 1.434125 2 112.184131 3 -157.610058 0
7 H  6 1.086889 1 105.536353 2 -174.976007 0
8 H  6 1.100025 1 107.030591 2 68.690250 0
9 C  4 1.446889 2 117.546528 1 8.799920 0
10 H  9 1.082622 4 119.591533 2 155.491159 0
11 C  9 1.345816 4 118.349869 2 -19.338409 0
12 H  11 1.081461 9 123.148126 4 173.879376 0
$end

Symmetry turned off temporarily
 Analysis of SCF Wavefunction
 
 --------------------------------------------------------------
                    Orbital Energies (a.u.)
 --------------------------------------------------------------
 
 Alpha MOs
 -- Occupied --
-20.593 -11.305 -11.294 -11.246 -11.235 -11.230  -1.420  -1.099
 -1.038  -0.900  -0.844  -0.722  -0.707  -0.653  -0.636  -0.607
 -0.574  -0.533  -0.509  -0.471  -0.418  -0.301
 -- Virtual --
  0.078   0.085   0.087   0.095   0.100   0.107   0.123   0.139
  0.148   0.150   0.163   0.165   0.170   0.200   0.205   0.217
  0.220   0.231   0.234   0.250   0.279   0.290   0.320   0.369
  0.380   0.381   0.389   0.402   0.429   0.433   0.449   0.454
  0.466   0.489   0.524   0.532   0.640   0.652   0.724   0.764
  0.798   0.805   0.815   0.851   0.864   0.868   0.896   0.926
  0.942   0.964   0.972   0.987   1.019   1.036   1.044   1.060
  1.097   1.116   1.142   1.146   1.176   1.199   1.228   1.249
  1.288   1.308   1.319   1.349   1.415   1.448   1.465   1.496
  1.516   1.546   1.577   1.645   1.665   1.710   1.738   1.746
  1.777   1.867   1.899   1.920   1.936   1.981   2.028   2.035
  2.084   2.107   2.158   2.189   2.214   2.250   2.346   2.461
  2.480   2.519   2.574   2.643   2.721   2.737   2.780   2.833
  2.872   2.893   3.008   3.038   3.087   3.138   3.170   3.214
  3.232   3.264   3.287   3.324   3.332   3.373   3.380   3.403
  3.426   3.464   3.479   3.539   3.546   3.587   3.609   3.626
  3.650   3.656   3.692   3.738   3.760   3.774   3.817   3.872
  3.929   3.950   3.976   4.002   4.018   4.055   4.143   4.194
  4.322   4.362   4.389   4.424   4.504   4.563   4.604   4.674
  4.741   4.789   4.798   4.825   4.875   4.896   4.910   4.935
  4.940   4.974   4.998   5.012   5.018   5.050   5.067   5.095
  5.139   5.187   5.207   5.241   5.374   5.407   5.522   5.566
  5.642   5.662   5.712   5.791   5.844   5.867   5.876   5.972
  6.003   6.062   6.201   6.302   6.400   6.490   6.663   6.868
  7.111   7.707  11.506  11.981  12.463  12.602  12.968  14.212
 
 Beta MOs
 -- Occupied --
-20.593 -11.305 -11.294 -11.247 -11.235 -11.230  -1.420  -1.099
 -1.038  -0.900  -0.844  -0.722  -0.707  -0.653  -0.636  -0.607
 -0.574  -0.533  -0.509  -0.471  -0.418  -0.300
 -- Virtual --
  0.078   0.085   0.087   0.094   0.100   0.107   0.123   0.139
  0.148   0.150   0.163   0.165   0.170   0.200   0.205   0.217
  0.220   0.231   0.234   0.250   0.279   0.290   0.320   0.369
  0.380   0.381   0.389   0.402   0.429   0.433   0.449   0.454
  0.466   0.489   0.524   0.532   0.640   0.652   0.724   0.764
  0.798   0.805   0.815   0.851   0.864   0.868   0.896   0.926
  0.942   0.964   0.972   0.987   1.019   1.036   1.044   1.060
  1.097   1.116   1.142   1.146   1.176   1.199   1.227   1.249
  1.288   1.308   1.319   1.349   1.415   1.448   1.465   1.496
  1.516   1.546   1.577   1.645   1.665   1.710   1.738   1.746
  1.777   1.867   1.899   1.920   1.936   1.981   2.028   2.035
  2.084   2.107   2.158   2.189   2.214   2.250   2.346   2.461
  2.480   2.519   2.574   2.643   2.721   2.737   2.780   2.833
  2.872   2.893   3.008   3.038   3.087   3.138   3.170   3.214
  3.232   3.264   3.287   3.324   3.332   3.373   3.380   3.403
  3.426   3.464   3.479   3.539   3.546   3.587   3.609   3.626
  3.650   3.656   3.692   3.738   3.760   3.774   3.817   3.872
  3.929   3.950   3.976   4.002   4.018   4.055   4.143   4.194
  4.322   4.362   4.389   4.424   4.504   4.563   4.604   4.674
  4.741   4.789   4.798   4.825   4.874   4.896   4.910   4.935
  4.940   4.975   4.998   5.012   5.018   5.050   5.067   5.095
  5.139   5.187   5.207   5.241   5.374   5.407   5.522   5.566
  5.642   5.662   5.712   5.791   5.844   5.867   5.876   5.972
  6.003   6.062   6.201   6.302   6.400   6.490   6.663   6.868
  7.111   7.707  11.506  11.981  12.463  12.602  12.968  14.212
 --------------------------------------------------------------
 
 
          Ground-State Mulliken Net Atomic Charges

     Atom                 Charge (a.u.)    Spin (a.u.)
  --------------------------------------------------------
      1 O                    -0.166271      -0.000083
      2 C                    -0.043610      -0.077978
      3 C                    -0.291988      -0.009357
      4 C                    -0.193546       0.096205
      5 C                    -0.251922       0.074822
      6 C                    -0.119965      -0.086636
      7 H                     0.181734       0.004853
      8 H                     0.180072      -0.004200
      9 H                     0.175585       0.005239
     10 H                     0.172720       0.002299
     11 H                     0.179890       0.000811
     12 H                     0.177300      -0.005977
  --------------------------------------------------------
  Sum of atomic charges =     0.000000
  Sum of spin   charges =     0.000000

 -----------------------------------------------------------------
                    Cartesian Multipole Moments
 -----------------------------------------------------------------
    Charge (ESU x 10^10)
                 0.0000
    Dipole Moment (Debye)
         X      -0.4507      Y       0.4802      Z       0.4395
       Tot       0.7917
    Quadrupole Moments (Debye-Ang)
        XX     -31.8156     XY       1.7580     YY     -34.9408
        XZ       0.8416     YZ      -0.6663     ZZ     -39.4721
    Octapole Moments (Debye-Ang^2)
       XXX      15.5131    XXY      -5.8073    XYY       1.1601
       YYY      -4.3296    XXZ      -0.2000    XYZ       1.0086
       YYZ       3.7098    XZZ       3.9816    YZZ      -6.0346
       ZZZ       7.9349
    Hexadecapole Moments (Debye-Ang^3)
      XXXX    -264.9502   XXXY      -0.8977   XXYY     -89.5482
      XYYY       5.5308   YYYY    -263.3995   XXXZ       0.0494
      XXYZ      -1.4217   XYYZ       3.2505   YYYZ      -8.6428
      XXZZ     -64.1200   XYZZ       1.9934   YYZZ     -60.9704
      XZZZ      -7.8922   YZZZ     -10.3554   ZZZZ     -70.5525
 -----------------------------------------------------------------
 JobOver = TRUE
Archival summary:
1\1\x147\OPT\MP2\BasisUnspecified\O1C5H6\jxh509\18Apr2011\0\\#,OPT,MP2,BasisUnspecified,\\0,1\O\C,1,1.34804\H,2,1.0824,1,112.508\C,2,1.35023,1,122.782,3,-174.583,0\H,4,1.07953,2,119.295,1,178.677,0\C,1,1.43412,2,112.184,3,-157.61,0\H,6,1.08689,1,105.536,2,-174.976,0\H,6,1.10003,1,107.031,2,68.6903,0\C,4,1.44689,2,117.547,1,8.79992,0\H,9,1.08262,4,119.592,2,155.491,0\C,9,1.34582,4,118.35,2,-19.3384,0\H,11,1.08146,9,123.148,4,173.879,0\\HF=-267.677413\MP2=-268.718456\\@

 Total job time:  32869.91s(wall), 28802.37s(cpu) 
 Mon Apr 18 22:25:17 2011

        *************************************************************
        *                                                           *
        *  Thank you very much for using Q-Chem.  Have a nice day.  *
        *                                                           *
        *************************************************************


*** MISSION COMPLETED -- STARFLEET OUT ***

