Jobname.Temp
SP        R                             cc-pVTZ             
Number of atoms                            I                3
Charge                                     I                0
Multiplicity                               I                1
Number of electrons                        I               10
Number of alpha electrons                  I                5
Number of beta electrons                   I                5
Atomic numbers                             I   N=           3
           8           1           1
Current cartesian coordinates              R   N=           9
 -2.77555756E-17  2.12850618E-17  2.19815368E-01 -1.41947741E+00 -1.52550785E-16
 -8.79261471E-01  1.41947741E+00 -1.77297099E-17 -8.79261471E-01
Nuclear charges                            R   N=           3
  8.00000000E+00  1.00000000E+00  1.00000000E+00
Number of basis functions                  I               58
Number of contracted shells                I               22
Number of primitive shells                 I               40
Highest angular momentum                   I                3
Largest degree of contraction              I                7
Shell types                                I   N=          22
           0           0           0           0           1           1
           1          -2          -2          -3           0           0
           0           1           1          -2           0           0
           0           1           1          -2
Number of primitives per shell             I   N=          22
           7           7           1           1           3           1
           1           1           1           1           3           1
           1           1           1           1           3           1
           1           1           1           1
Shell to atom map                          I   N=          22
           1           1           1           1           1           1
           1           1           1           1           2           2
           2           2           2           2           3           3
           3           3           3           3
Primitive exponents                        R   N=          40
  1.53300000E+04  2.29900000E+03  5.22400000E+02  1.47300000E+02  4.75500000E+01
  1.67600000E+01  6.20700000E+00  1.53300000E+04  2.29900000E+03  1.47300000E+02
  4.75500000E+01  1.67600000E+01  6.20700000E+00  6.88200000E-01  1.75200000E+00
  2.38400000E-01  3.44600000E+01  7.74900000E+00  2.28000000E+00  7.15600000E-01
  2.14000000E-01  2.31400000E+00  6.45000000E-01  1.42800000E+00  3.38700000E+01
  5.09500000E+00  1.15900000E+00  3.25800000E-01  1.02700000E-01  1.40700000E+00
  3.88000000E-01  1.05700000E+00  3.38700000E+01  5.09500000E+00  1.15900000E+00
  3.25800000E-01  1.02700000E-01  1.40700000E+00  3.88000000E-01  1.05700000E+00
Contraction coefficients                   R   N=          40
  5.19807566E-04  4.02025773E-03  2.07128269E-02  8.10105552E-02  2.35962988E-01
  4.42653444E-01  3.57064420E-01  2.39729119E-06  8.58121279E-06 -1.05276498E-03
 -1.00458896E-02 -6.64857111E-02 -1.70398750E-01  1.07306114E+00  1.00000000E+00
  1.00000000E+00  4.11634896E-02  2.57762836E-01  8.02419274E-01  1.00000000E+00
  1.00000000E+00  1.00000000E+00  1.00000000E+00  1.00000000E+00  2.54948632E-02
  1.90362766E-01  8.52162022E-01  1.00000000E+00  1.00000000E+00  1.00000000E+00
  1.00000000E+00  1.00000000E+00  2.54948632E-02  1.90362766E-01  8.52162022E-01
  1.00000000E+00  1.00000000E+00  1.00000000E+00  1.00000000E+00  1.00000000E+00
Coordinates of each shell                  R   N=          66
 -2.77555756E-17  2.12850618E-17  2.19815368E-01 -2.77555756E-17  2.12850618E-17
  2.19815368E-01 -2.77555756E-17  2.12850618E-17  2.19815368E-01 -2.77555756E-17
  2.12850618E-17  2.19815368E-01 -2.77555756E-17  2.12850618E-17  2.19815368E-01
 -2.77555756E-17  2.12850618E-17  2.19815368E-01 -2.77555756E-17  2.12850618E-17
  2.19815368E-01 -2.77555756E-17  2.12850618E-17  2.19815368E-01 -2.77555756E-17
  2.12850618E-17  2.19815368E-01 -2.77555756E-17  2.12850618E-17  2.19815368E-01
 -1.41947741E+00 -1.52550785E-16 -8.79261471E-01 -1.41947741E+00 -1.52550785E-16
 -8.79261471E-01 -1.41947741E+00 -1.52550785E-16 -8.79261471E-01 -1.41947741E+00
 -1.52550785E-16 -8.79261471E-01 -1.41947741E+00 -1.52550785E-16 -8.79261471E-01
 -1.41947741E+00 -1.52550785E-16 -8.79261471E-01  1.41947741E+00 -1.77297099E-17
 -8.79261471E-01  1.41947741E+00 -1.77297099E-17 -8.79261471E-01  1.41947741E+00
 -1.77297099E-17 -8.79261471E-01  1.41947741E+00 -1.77297099E-17 -8.79261471E-01
  1.41947741E+00 -1.77297099E-17 -8.79261471E-01  1.41947741E+00 -1.77297099E-17
 -8.79261471E-01
Overlap Matrix                             R   N=        1711
  1.00000000E+00  1.04712649E-01  1.00000000E+00  5.29767968E-01  7.55463327E-01
  1.00000000E+00  1.47812726E-01  8.29541310E-01  5.23316844E-01  1.00000000E+00
  0.00000000E+00  0.00000000E+00  0.00000000E+00  0.00000000E+00  1.00000000E+00
  0.00000000E+00  0.00000000E+00  0.00000000E+00  0.00000000E+00  0.00000000E+00
  1.00000000E+00  0.00000000E+00  0.00000000E+00  0.00000000E+00  0.00000000E+00
  0.00000000E+00  0.00000000E+00  1.00000000E+00  0.00000000E+00  0.00000000E+00
  0.00000000E+00  0.00000000E+00  6.00183926E-01  0.00000000E+00  0.00000000E+00
  1.00000000E+00  0.00000000E+00  0.00000000E+00  0.00000000E+00  0.00000000E+00
  0.00000000E+00  6.00183926E-01  0.00000000E+00  0.00000000E+00  1.00000000E+00
  0.00000000E+00  0.00000000E+00  0.00000000E+00  0.00000000E+00  0.00000000E+00
  0.00000000E+00  6.00183926E-01  0.00000000E+00  0.00000000E+00  1.00000000E+00
  0.00000000E+00  0.00000000E+00  0.00000000E+00  0.00000000E+00  2.04173581E-01
  0.00000000E+00  0.00000000E+00  6.50413929E-01  0.00000000E+00  0.00000000E+00
  1.00000000E+00  0.00000000E+00  0.00000000E+00  0.00000000E+00  0.00000000E+00
  0.00000000E+00  2.04173581E-01  0.00000000E+00  0.00000000E+00  6.50413929E-01
  0.00000000E+00  0.00000000E+00  1.00000000E+00  0.00000000E+00  0.00000000E+00
  0.00000000E+00  0.00000000E+00  0.00000000E+00  0.00000000E+00  2.04173581E-01
  0.00000000E+00  0.00000000E+00  6.50413929E-01  0.00000000E+00  0.00000000E+00
  1.00000000E+00  0.00000000E+00  0.00000000E+00  0.00000000E+00  0.00000000E+00
  0.00000000E+00  0.00000000E+00  0.00000000E+00  0.00000000E+00  0.00000000E+00
  0.00000000E+00  0.00000000E+00  0.00000000E+00  0.00000000E+00  1.00000000E+00
  0.00000000E+00  0.00000000E+00  0.00000000E+00  0.00000000E+00  0.00000000E+00
  0.00000000E+00  0.00000000E+00  0.00000000E+00  0.00000000E+00  0.00000000E+00
  0.00000000E+00  0.00000000E+00  0.00000000E+00  0.00000000E+00  1.00000000E+00
  0.00000000E+00  0.00000000E+00  0.00000000E+00  0.00000000E+00  0.00000000E+00
  0.00000000E+00  0.00000000E+00  0.00000000E+00  0.00000000E+00  0.00000000E+00
  0.00000000E+00  0.00000000E+00  0.00000000E+00  0.00000000E+00  0.00000000E+00
  1.00000000E+00  0.00000000E+00  0.00000000E+00  0.00000000E+00  0.00000000E+00
  0.00000000E+00  0.00000000E+00  0.00000000E+00  0.00000000E+00  0.00000000E+00
  0.00000000E+00  0.00000000E+00  0.00000000E+00  0.00000000E+00  0.00000000E+00
  0.00000000E+00  0.00000000E+00  1.00000000E+00  0.00000000E+00  0.00000000E+00
  0.00000000E+00  0.00000000E+00  0.00000000E+00  0.00000000E+00  0.00000000E+00
  0.00000000E+00  0.00000000E+00  0.00000000E+00  0.00000000E+00  0.00000000E+00
  0.00000000E+00  0.00000000E+00  0.00000000E+00  0.00000000E+00  0.00000000E+00
  1.00000000E+00  0.00000000E+00  0.00000000E+00  0.00000000E+00  0.00000000E+00
  0.00000000E+00  0.00000000E+00  0.00000000E+00  0.00000000E+00  0.00000000E+00
  0.00000000E+00  0.00000000E+00  0.00000000E+00  0.00000000E+00  5.11638218E-01
  0.00000000E+00  0.00000000E+00  0.00000000E+00  0.00000000E+00  1.00000000E+00
  0.00000000E+00  0.00000000E+00  0.00000000E+00  0.00000000E+00  0.00000000E+00
  0.00000000E+00  0.00000000E+00  0.00000000E+00  0.00000000E+00  0.00000000E+00
  0.00000000E+00  0.00000000E+00  0.00000000E+00  0.00000000E+00  5.11638218E-01
  0.00000000E+00  0.00000000E+00  0.00000000E+00  0.00000000E+00  1.00000000E+00
  0.00000000E+00  0.00000000E+00  0.00000000E+00  0.00000000E+00  0.00000000E+00
  0.00000000E+00  0.00000000E+00  0.00000000E+00  0.00000000E+00  0.00000000E+00
  0.00000000E+00  0.00000000E+00  0.00000000E+00  0.00000000E+00  0.00000000E+00
  5.11638218E-01  0.00000000E+00  0.00000000E+00  0.00000000E+00  0.00000000E+00
  1.00000000E+00  0.00000000E+00  0.00000000E+00  0.00000000E+00  0.00000000E+00
  0.00000000E+00  0.00000000E+00  0.00000000E+00  0.00000000E+00  0.00000000E+00
  0.00000000E+00  0.00000000E+00  0.00000000E+00  0.00000000E+00  0.00000000E+00
  0.00000000E+00  0.00000000E+00  5.11638218E-01  0.00000000E+00  0.00000000E+00
  0.00000000E+00  0.00000000E+00  1.00000000E+00  0.00000000E+00  0.00000000E+00
  0.00000000E+00  0.00000000E+00  0.00000000E+00  0.00000000E+00  0.00000000E+00
  0.00000000E+00  0.00000000E+00  0.00000000E+00  0.00000000E+00  0.00000000E+00
  0.00000000E+00  0.00000000E+00  0.00000000E+00  0.00000000E+00  0.00000000E+00
  5.11638218E-01  0.00000000E+00  0.00000000E+00  0.00000000E+00  0.00000000E+00
  1.00000000E+00  0.00000000E+00  0.00000000E+00  0.00000000E+00  0.00000000E+00
  0.00000000E+00  0.00000000E+00 -5.55111512E-17  0.00000000E+00  0.00000000E+00
 -1.11022302E-16  0.00000000E+00  0.00000000E+00  0.00000000E+00  0.00000000E+00
  0.00000000E+00  0.00000000E+00  0.00000000E+00  0.00000000E+00  0.00000000E+00
  0.00000000E+00  0.00000000E+00  0.00000000E+00  0.00000000E+00  1.00000000E+00
  0.00000000E+00  0.00000000E+00  0.00000000E+00  0.00000000E+00  0.00000000E+00
  0.00000000E+00  0.00000000E+00  0.00000000E+00  0.00000000E+00  0.00000000E+00
  0.00000000E+00  0.00000000E+00  0.00000000E+00  0.00000000E+00  0.00000000E+00
  0.00000000E+00  0.00000000E+00  0.00000000E+00  0.00000000E+00  0.00000000E+00
  0.00000000E+00  0.00000000E+00  0.00000000E+00  0.00000000E+00  1.00000000E+00
  0.00000000E+00  0.00000000E+00  0.00000000E+00  0.00000000E+00  0.00000000E+00
  0.00000000E+00  0.00000000E+00  0.00000000E+00  0.00000000E+00  0.00000000E+00
  0.00000000E+00  0.00000000E+00  0.00000000E+00  0.00000000E+00  0.00000000E+00
  0.00000000E+00  0.00000000E+00  0.00000000E+00  0.00000000E+00  0.00000000E+00
  0.00000000E+00  0.00000000E+00  0.00000000E+00  0.00000000E+00  0.00000000E+00
  1.00000000E+00  0.00000000E+00  0.00000000E+00  0.00000000E+00  0.00000000E+00
  0.00000000E+00  0.00000000E+00  0.00000000E+00  0.00000000E+00  0.00000000E+00
  0.00000000E+00  0.00000000E+00  0.00000000E+00  0.00000000E+00  0.00000000E+00
  0.00000000E+00  0.00000000E+00  0.00000000E+00  0.00000000E+00  0.00000000E+00
  0.00000000E+00  0.00000000E+00  0.00000000E+00  0.00000000E+00  0.00000000E+00
  0.00000000E+00  0.00000000E+00  1.00000000E+00  0.00000000E+00  0.00000000E+00
  0.00000000E+00  0.00000000E+00  0.00000000E+00  0.00000000E+00  0.00000000E+00
  0.00000000E+00  0.00000000E+00  0.00000000E+00  0.00000000E+00  0.00000000E+00
  0.00000000E+00  0.00000000E+00  0.00000000E+00  0.00000000E+00  0.00000000E+00
  0.00000000E+00  0.00000000E+00  0.00000000E+00  0.00000000E+00  0.00000000E+00
  0.00000000E+00  0.00000000E+00  0.00000000E+00  0.00000000E+00  0.00000000E+00
  1.00000000E+00  0.00000000E+00  0.00000000E+00  0.00000000E+00  0.00000000E+00
 -5.55111512E-17  0.00000000E+00  0.00000000E+00 -1.11022302E-16  0.00000000E+00
  0.00000000E+00  0.00000000E+00  0.00000000E+00  0.00000000E+00  0.00000000E+00
  0.00000000E+00  0.00000000E+00  0.00000000E+00  0.00000000E+00  0.00000000E+00
  0.00000000E+00  0.00000000E+00  0.00000000E+00  0.00000000E+00  0.00000000E+00
 -3.30538438E-17  0.00000000E+00  0.00000000E+00  0.00000000E+00  1.00000000E+00
  0.00000000E+00  0.00000000E+00  0.00000000E+00  0.00000000E+00  0.00000000E+00
  5.55111512E-17  0.00000000E+00  0.00000000E+00  1.11022302E-16  0.00000000E+00
  0.00000000E+00  0.00000000E+00  0.00000000E+00  0.00000000E+00  0.00000000E+00
  0.00000000E+00  0.00000000E+00  0.00000000E+00  0.00000000E+00  0.00000000E+00
  0.00000000E+00  0.00000000E+00  0.00000000E+00  0.00000000E+00  0.00000000E+00
  3.30538438E-17  0.00000000E+00  0.00000000E+00  0.00000000E+00  1.00000000E+00
  1.31070143E-02  2.27244254E-01  8.95275832E-02  3.19101668E-01 -8.38029708E-02
 -1.02629040E-17 -6.48871929E-02 -3.20410765E-01 -3.92390017E-17 -2.48088521E-01
 -3.57700840E-01 -4.38057189E-17 -2.76961582E-01  8.24873649E-03  1.11164103E-01
  1.36136763E-17  7.17852144E-02  1.75823066E-17  2.96189319E-02  3.99159557E-01
  4.88829474E-17  2.57760856E-01  6.31332014E-17  8.16104243E-02 -1.00209491E-01
 -1.22721233E-17 -1.75502853E-01 -4.29858014E-17 -9.25356296E-02 -3.39970388E-17
  1.00000000E+00  6.68773154E-02  4.53221699E-01  2.55853028E-01  6.30087531E-01
 -9.99280645E-02 -1.22376584E-17 -7.73725744E-02 -3.26068913E-01 -3.99319250E-17
 -2.52469527E-01 -5.05846052E-01 -6.19482748E-17 -3.91667861E-01  3.46897915E-03
  4.67497000E-02  5.72518705E-18  3.01890371E-02  7.39418154E-18  1.53673059E-02
  2.07097509E-01  2.53621301E-17  1.33735070E-01  3.27556450E-17  1.31474997E-02
 -1.61438231E-02 -1.97704813E-18 -2.82736393E-02 -6.92504438E-18 -1.49075583E-02
 -5.47694808E-18  7.06285045E-01  1.00000000E+00  5.79493800E-02  4.24660366E-01
  2.26295172E-01  6.97288899E-01 -3.00951203E-02 -3.68558927E-18 -2.33021318E-02
 -1.21703162E-01 -1.49043387E-17 -9.42326560E-02 -3.08472263E-01 -3.77769570E-17
 -2.38844745E-01  3.61177559E-04  4.86740964E-03  5.96085763E-19  3.14317333E-03
  7.69855431E-19  2.41926710E-03  3.26032549E-02  3.99274717E-18  2.10538436E-02
  5.15670443E-18  5.51786324E-04 -6.77538773E-04 -8.29745689E-20 -1.18661402E-03
 -2.90636613E-19 -6.25654078E-04 -2.29861579E-19  3.73527845E-01  7.88878095E-01
  1.00000000E+00  2.69327231E-02  2.34403418E-01  1.49681278E-01  1.49396798E-01
 -1.22852050E-01 -2.08884177E-17 -1.32066985E-01 -1.71771294E-01 -4.41132718E-17
 -2.78906085E-01  5.21185374E-02 -1.89992509E-17 -1.20122731E-01  7.03215287E-02
  1.76346195E-01  3.01456700E-17  6.87954861E-02  2.78918533E-17  2.12241221E-01
  1.89110551E-01  5.27662603E-17 -3.39979886E-02  2.99107320E-17 -2.47201753E-02
 -2.09778743E-01 -3.35073522E-17 -9.56894853E-02 -5.08174493E-17  8.48836434E-03
 -1.85362180E-17  0.00000000E+00  0.00000000E+00  0.00000000E+00  1.00000000E+00
  3.29830731E-18  2.87061396E-17  1.83306697E-17  1.82958310E-17 -2.08884177E-17
  4.77148249E-02 -1.61735410E-17 -4.41132718E-17  1.88440906E-01 -3.41561444E-17
 -1.89992509E-17  2.07259195E-01 -1.47107918E-17  8.61190350E-18  3.01456700E-17
 -6.98118814E-02  3.05086551E-17 -9.01632942E-02  2.59920532E-17  5.27662603E-17
 -2.41758662E-01  7.23121224E-17 -3.12235639E-01 -3.02734836E-18 -3.35073522E-17
  6.38295515E-02 -6.64791521E-17  2.23576994E-01 -6.39248526E-17  1.76824799E-01
  0.00000000E+00  0.00000000E+00  0.00000000E+00  0.00000000E+00  1.00000000E+00
  2.08535423E-02  1.81494518E-01  1.15895628E-01  1.15675360E-01 -1.32066985E-01
 -1.61735410E-17 -5.45423604E-02 -2.78906085E-01 -3.41561444E-17 -2.75112582E-02
 -1.20122731E-01 -1.47107918E-17  1.14250239E-01 -6.64689805E-02  1.00432652E-01
  1.22994526E-17  1.23079038E-01  3.01456700E-17 -2.54403574E-01  2.13789512E-02
  2.61816642E-18  2.15434607E-01  5.27662603E-17  1.37209427E-01  1.41656089E-01
  1.73478676E-17 -1.02825676E-01 -2.51850270E-17 -1.30339994E-01 -4.78861370E-17
  0.00000000E+00  0.00000000E+00  0.00000000E+00  0.00000000E+00  0.00000000E+00
  1.00000000E+00  1.06264554E-01  4.79162010E-01  3.51788179E-01  4.00139654E-01
 -4.33522034E-02 -2.05655109E-17 -1.30025407E-01 -5.48902133E-03 -4.91776824E-17
 -3.10925812E-01  2.55354561E-01 -3.91321491E-17 -2.47412945E-01  5.72817741E-02
  2.29833238E-02  1.11162168E-17 -2.89326815E-02  3.63516490E-18  2.29401377E-01
 -6.64892344E-03  3.35256744E-17 -1.85368822E-01 -1.05162914E-18 -4.52518852E-02
 -4.38820731E-02 -8.61122707E-18  3.56702139E-02 -2.60240049E-18  4.32171454E-02
  6.90975460E-18  0.00000000E+00  0.00000000E+00  0.00000000E+00  6.14923564E-01
  0.00000000E+00  0.00000000E+00  1.00000000E+00  1.30136546E-17  5.86804222E-17
  4.30816268E-17  4.90029747E-17 -2.05655109E-17  1.24577937E-01 -1.59235199E-17
 -4.91776824E-17  3.96077230E-01 -3.80774301E-17 -3.91321491E-17  5.74892807E-01
 -3.02993471E-17  7.01499413E-18  1.11162168E-17 -6.77874749E-02  1.79000245E-17
 -8.75487370E-02  2.80935662E-17  3.35256744E-17 -2.80406830E-01  6.60001419E-17
 -3.62150440E-01 -5.54175764E-18 -8.61122707E-18  2.64339320E-02 -1.83098250E-17
  9.25906405E-02 -2.16113272E-17  7.32290080E-02  0.00000000E+00  0.00000000E+00
  0.00000000E+00  0.00000000E+00  6.14923564E-01  0.00000000E+00  0.00000000E+00
  1.00000000E+00  8.22788086E-02  3.71006868E-01  2.72383511E-01  3.09821223E-01
 -1.30025407E-01 -1.59235199E-17  2.39015102E-02 -3.10925812E-01 -3.80774301E-17
  1.55332744E-01 -2.47412945E-01 -3.02993471E-17  3.83325237E-01 -7.30590623E-02
 -1.72664754E-02 -2.11453338E-18  4.53853993E-02  1.11162168E-17 -3.08057353E-01
 -1.50184421E-01 -1.83922870E-17  1.36878953E-01  3.35256744E-17  2.97118923E-02
  9.19541887E-02  1.12611403E-17  1.57187315E-02  3.84997883E-18 -2.32376669E-02
 -8.53738030E-18  0.00000000E+00  0.00000000E+00  0.00000000E+00  0.00000000E+00
  0.00000000E+00  6.14923564E-01  0.00000000E+00  0.00000000E+00  1.00000000E+00
  7.36274763E-03  1.82261395E-02  2.16944120E-02  6.04254524E-03 -1.06190947E-01
 -1.30046403E-17  1.08036275E-01 -1.92095024E-01 -2.35248556E-17  2.32272921E-01
 -8.29976266E-02 -1.01642778E-17  1.15684437E-01 -1.69543686E-01 -6.88047410E-02
 -8.42615058E-18  1.43563600E-01  3.51629407E-17 -2.02837525E-01 -1.49862160E-01
 -1.83528215E-17  2.49111800E-01  6.10147936E-17  7.72254795E-03  2.16693444E-01
  2.65372933E-17 -2.61028764E-02 -6.39336081E-18 -1.83269987E-01 -6.73323008E-17
  0.00000000E+00  0.00000000E+00  0.00000000E+00  0.00000000E+00  0.00000000E+00
  0.00000000E+00  0.00000000E+00  0.00000000E+00  0.00000000E+00  1.00000000E+00
  9.92240737E-02  2.45624582E-01  2.92364759E-01  8.14323653E-02 -2.17413793E-01
 -4.00777119E-17 -1.11523758E-01 -1.58289249E-01 -4.63240741E-17 -8.78155523E-03
  2.93826924E-02 -9.12488882E-18  7.64876578E-02 -6.88047410E-02  1.07546103E-01
  2.00162839E-17  7.76466473E-02  3.96017556E-17 -1.49862160E-01 -4.90174701E-03
 -1.57761676E-18 -5.96506243E-02  2.32614032E-17  1.29613745E-01  4.15361731E-02
  1.85304217E-17 -2.04970010E-02 -1.62331044E-17  4.18482077E-02 -1.24645396E-17
  0.00000000E+00  0.00000000E+00  0.00000000E+00  0.00000000E+00  0.00000000E+00
  0.00000000E+00  0.00000000E+00  0.00000000E+00  0.00000000E+00  0.00000000E+00
  1.00000000E+00  1.21514444E-17  3.00803358E-17  3.58043567E-17  9.97258855E-18
 -4.00777119E-17  1.09845560E-01 -1.36577213E-17 -4.63240741E-17  2.19975522E-01
 -1.07543035E-18 -9.12488882E-18  1.03893064E-01  9.36703653E-18 -8.42615058E-18
  2.00162839E-17 -5.58992584E-02  5.06765958E-17 -1.68079580E-01 -1.83528215E-17
 -1.57761676E-18  7.98047148E-03  6.84380903E-17 -3.09245021E-01  1.58731058E-17
  1.85304217E-17 -1.09776203E-01 -2.49357328E-17  9.15593549E-02 -7.83930378E-17
  2.27325313E-01  0.00000000E+00  0.00000000E+00  0.00000000E+00  0.00000000E+00
  0.00000000E+00  0.00000000E+00  0.00000000E+00  0.00000000E+00  0.00000000E+00
  0.00000000E+00  0.00000000E+00  1.00000000E+00  6.40748335E-02  1.58614272E-01
  1.88797160E-01  5.25856785E-02 -6.94631489E-02 -4.32542999E-17 -1.63629676E-01
  3.98344628E-02 -6.47066855E-17 -1.89132386E-01  8.60640124E-02 -2.23247589E-17
 -3.72551859E-02  1.43563600E-01  7.76466473E-02  5.06765958E-17  1.58439818E-02
  3.88653688E-17  2.49111800E-01 -5.96506243E-02  6.84380903E-17  9.20588593E-03
  3.94771790E-17 -1.81913844E-01 -1.13397444E-01 -5.50158120E-17 -7.60052500E-03
 -5.56386760E-17 -6.60700670E-02 -3.74272964E-17  0.00000000E+00  0.00000000E+00
  0.00000000E+00  0.00000000E+00  0.00000000E+00  0.00000000E+00  0.00000000E+00
  0.00000000E+00  0.00000000E+00  0.00000000E+00  0.00000000E+00  0.00000000E+00
  1.00000000E+00  1.56938080E-17  3.88492920E-17  4.62419674E-17  1.28797766E-17
 -3.43873234E-17  1.41867507E-01 -4.00777119E-17 -2.50358706E-17  2.84102324E-01
 -4.63240741E-17  4.64732312E-18  1.34179752E-01 -9.12488882E-18  3.51629407E-17
  3.96017556E-17 -1.68079580E-01  3.88653688E-17 -1.42835928E-01  6.10147936E-17
  2.32614032E-17 -3.09245021E-01  3.94771790E-17 -1.51971929E-01 -4.45560412E-17
 -4.83386785E-17  1.67920376E-01 -5.56386760E-17  2.19561609E-01 -3.59128206E-17
  5.37034335E-02  0.00000000E+00  0.00000000E+00  0.00000000E+00  0.00000000E+00
  0.00000000E+00  0.00000000E+00  0.00000000E+00  0.00000000E+00  0.00000000E+00
  0.00000000E+00  0.00000000E+00  0.00000000E+00  0.00000000E+00  1.00000000E+00
  1.31070143E-02  2.27244254E-01  8.95275832E-02  3.19101668E-01  8.38029708E-02
 -2.30335034E-18 -6.48871929E-02  3.20410765E-01 -8.80658809E-18 -2.48088521E-01
  3.57700840E-01 -9.83151726E-18 -2.76961582E-01  8.24873649E-03 -1.11164103E-01
  3.05537946E-18  7.17852144E-02 -3.94607725E-18  2.96189319E-02 -3.99159557E-01
  1.09710228E-17  2.57760856E-01 -1.41692723E-17  8.16104243E-02  1.00209491E-01
 -2.75428859E-18 -1.75502853E-01  9.64749943E-18  9.25356296E-02 -7.63011044E-18
  6.91327096E-03  8.80879377E-02  1.73947657E-01  1.54571433E-02  7.34054891E-19
  4.01386513E-18  1.88042979E-01  8.93010214E-18  4.95064845E-17 -2.73260242E-02
  2.82712704E-17  1.34259377E-33  4.73300623E-02  4.49537966E-18  1.00000000E+00
  6.68773154E-02  4.53221699E-01  2.55853028E-01  6.30087531E-01  9.99280645E-02
 -2.74655349E-18 -7.73725744E-02  3.26068913E-01 -8.96210402E-18 -2.52469527E-01
  5.05846052E-01 -1.39033338E-17 -3.91667861E-01  3.46897915E-03 -4.67497000E-02
  1.28492984E-18  3.01890371E-02 -1.65950988E-18  1.53673059E-02 -2.07097509E-01
  5.69213852E-18  1.33735070E-01 -7.35149877E-18  1.31474997E-02  1.61438231E-02
 -4.43717927E-19 -2.82736393E-02  1.55421929E-18  1.49075583E-02 -1.22921643E-18
  8.80879377E-02  2.69033509E-01  4.20425981E-01  1.03734221E-01  4.92630567E-18
  2.15760113E-17  3.85137925E-01  1.82900794E-17  9.89953407E-17 -5.73744283E-02
  6.59779823E-17  3.13327371E-33  9.93754249E-02  9.43861558E-18  7.06285045E-01
  1.00000000E+00  5.79493800E-02  4.24660366E-01  2.26295172E-01  6.97288899E-01
  3.00951203E-02 -8.27173607E-19 -2.33021318E-02  1.21703162E-01 -3.34504871E-18
 -9.42326560E-02  3.08472263E-01 -8.47845472E-18 -2.38844745E-01  3.61177559E-04
 -4.86740964E-03  1.33782246E-19  3.14317333E-03 -1.72782165E-19  2.41926710E-03
 -3.26032549E-02  8.96110454E-19  2.10538436E-02 -1.15734269E-18  5.51786324E-04
  6.77538773E-04 -1.86223609E-20 -1.18661402E-03  6.52289004E-20  6.25654078E-04
 -5.15888824E-20  1.73947657E-01  4.20425981E-01  6.61091006E-01  7.57005993E-02
  3.59499774E-18  0.00000000E+00  2.82318817E-01  1.34072322E-17  5.27517886E-17
 -1.55391892E-02  2.37709173E-17  1.12887342E-33  2.69146653E-02  2.55633804E-18
  3.73527845E-01  7.88878095E-01  1.00000000E+00 -2.69327231E-02 -2.34403418E-01
 -1.49681278E-01 -1.49396798E-01 -1.22852050E-01  4.68808283E-18  1.32066985E-01
 -1.71771294E-01  9.90054275E-18  2.78906085E-01  5.21185374E-02  4.26408852E-18
  1.20122731E-01 -7.03215287E-02  1.76346195E-01 -6.76573018E-18 -6.87954861E-02
  6.25989583E-18 -2.12241221E-01  1.89110551E-01 -1.18425724E-17  3.39979886E-02
  6.71300197E-18  2.47201753E-02 -2.09778743E-01  7.52020786E-18  9.56894853E-02
 -1.14051919E-17  8.48836434E-03  4.16016793E-18 -1.54571433E-02 -1.03734221E-01
 -7.57005993E-02 -3.56516766E-02 -1.85682926E-18 -9.17435766E-18 -2.06828691E-01
 -1.23392043E-17 -6.48156619E-17  5.59365148E-02 -5.99493573E-17 -3.17312169E-33
 -9.68848856E-02 -1.03926305E-17  0.00000000E+00  0.00000000E+00  0.00000000E+00
  1.00000000E+00  7.40254150E-19  6.44264981E-18  4.11403580E-18  4.10621679E-18
  4.68808283E-18  4.77148249E-02 -3.62990156E-18  9.90054275E-18  1.88440906E-01
 -7.66581925E-18  4.26408852E-18  2.07259195E-01 -3.30161009E-18  1.93280877E-18
 -6.76573018E-18 -6.98118814E-02  6.84719659E-18  9.01632942E-02  5.83351503E-18
 -1.18425724E-17 -2.41758662E-01  1.62293394E-17  3.12235639E-01 -6.79441597E-19
  7.52020786E-18  6.38295515E-02 -1.49202193E-17 -2.23576994E-01  1.43469462E-17
  1.76824799E-01 -7.34054891E-19 -4.92630567E-18 -3.59499774E-18 -1.85682926E-18
  3.44795516E-03 -4.35687371E-34 -1.23392043E-17  5.30004461E-02 -3.07807548E-33
  2.65640756E-18 -3.17312169E-33  6.86771219E-18 -6.98216249E-18  2.50699657E-02
  0.00000000E+00  0.00000000E+00  0.00000000E+00  0.00000000E+00  1.00000000E+00
  2.08535423E-02  1.81494518E-01  1.15895628E-01  1.15675360E-01  1.32066985E-01
 -3.62990156E-18 -5.45423604E-02  2.78906085E-01 -7.66581925E-18 -2.75112582E-02
  1.20122731E-01 -3.30161009E-18  1.14250239E-01 -6.64689805E-02 -1.00432652E-01
  2.76042224E-18  1.23079038E-01 -6.76573018E-18 -2.54403574E-01 -2.13789512E-02
  5.87607028E-19  2.15434607E-01 -1.18425724E-17  1.37209427E-01 -1.41656089E-01
  3.89346104E-18 -1.02825676E-01  5.65239045E-18  1.30339994E-01 -1.07473041E-17
 -4.01386513E-18 -2.15760113E-17  0.00000000E+00 -1.22324769E-17 -5.80916494E-34
  3.44795516E-03 -9.40161199E-17 -4.46479608E-33  5.30004461E-02  2.71866430E-17
  2.50699657E-02  1.19056482E-18 -3.33532226E-17 -3.16786818E-33  0.00000000E+00
  0.00000000E+00  0.00000000E+00  0.00000000E+00  0.00000000E+00  1.00000000E+00
 -1.06264554E-01 -4.79162010E-01 -3.51788179E-01 -4.00139654E-01 -4.33522034E-02
  4.61561140E-18  1.30025407E-01 -5.48902133E-03  1.10371715E-17  3.10925812E-01
  2.55354561E-01  8.78260666E-18  2.47412945E-01 -5.72817741E-02  2.29833238E-02
 -2.49486323E-18  2.89326815E-02  8.15856634E-19 -2.29401377E-01 -6.64892344E-03
 -7.52431999E-18  1.85368822E-01 -2.36021924E-19  4.52518852E-02 -4.38820731E-02
  1.93265696E-18 -3.56702139E-02 -5.84068610E-19  4.32171454E-02 -1.55078773E-18
 -1.88042979E-01 -3.85137925E-01 -2.82318817E-01 -2.06828691E-01 -1.23392043E-17
 -9.40161199E-17 -4.45395807E-01 -3.10953922E-17 -1.53638385E-16  8.74921903E-02
 -1.22568597E-16 -7.44894978E-33 -1.51540919E-01 -1.99829983E-17  0.00000000E+00
  0.00000000E+00  0.00000000E+00  6.14923564E-01  0.00000000E+00  0.00000000E+00
  1.00000000E+00  2.92071384E-18  1.31699147E-17  9.66900595E-18  1.09979611E-17
  4.61561140E-18  1.24577937E-01 -3.57378819E-18  1.10371715E-17  3.96077230E-01
 -8.54589127E-18  8.78260666E-18  5.74892807E-01 -6.80022064E-18  1.57440712E-18
 -2.49486323E-18 -6.77874749E-02  4.01738413E-18  8.75487370E-02  6.30516718E-18
 -7.52431999E-18 -2.80406830E-01  1.48127128E-17  3.62150440E-01 -1.24376194E-18
  1.93265696E-18  2.64339320E-02 -4.10935751E-18 -9.25906405E-02  4.85032871E-18
  7.32290080E-02 -8.93010214E-18 -1.82900794E-17 -1.34072322E-17 -1.23392043E-17
  5.30004461E-02 -4.46479608E-33 -3.10953922E-17  2.09386197E-01 -7.29623879E-33
  4.15497670E-18 -7.44894978E-33  3.42854552E-17 -1.83761043E-17  1.17704225E-01
  0.00000000E+00  0.00000000E+00  0.00000000E+00  0.00000000E+00  6.14923564E-01
  0.00000000E+00  0.00000000E+00  1.00000000E+00  8.22788086E-02  3.71006868E-01
  2.72383511E-01  3.09821223E-01  1.30025407E-01 -3.57378819E-18  2.39015102E-02
  3.10925812E-01 -8.54589127E-18  1.55332744E-01  2.47412945E-01 -6.80022064E-18
  3.83325237E-01 -7.30590623E-02  1.72664754E-02 -4.74574369E-19  4.53853993E-02
 -2.49486323E-18 -3.08057353E-01  1.50184421E-01 -4.12786485E-18  1.36878953E-01
 -7.52431999E-18  2.97118923E-02 -9.19541887E-02  2.52738907E-18  1.57187315E-02
 -8.64068306E-19  2.32376669E-02 -1.91608319E-18 -4.95064845E-17 -9.89953407E-17
 -5.27517886E-17 -6.48156619E-17 -3.07807548E-33  5.30004461E-02 -2.04851181E-16
 -9.72831838E-33  2.09386197E-01  8.11423840E-17  1.17704225E-01  5.58973678E-18
 -7.19718213E-17 -6.83583849E-33  0.00000000E+00  0.00000000E+00  0.00000000E+00
  0.00000000E+00  0.00000000E+00  6.14923564E-01  0.00000000E+00  0.00000000E+00
  1.00000000E+00  7.36274763E-03  1.82261395E-02  2.16944120E-02  6.04254524E-03
  1.06190947E-01 -2.91869073E-18  1.08036275E-01  1.92095024E-01 -5.27979063E-18
  2.32272921E-01  8.29976266E-02 -2.28121521E-18  1.15684437E-01 -1.69543686E-01
  6.88047410E-02 -1.89111940E-18  1.43563600E-01 -7.89177912E-18 -2.02837525E-01
  1.49862160E-01 -4.11900742E-18  2.49111800E-01 -1.36938284E-17  7.72254795E-03
 -2.16693444E-01  5.95588574E-18 -2.61028764E-02  1.43489112E-18  1.83269987E-01
 -1.51116953E-17 -2.73260242E-02 -5.73744283E-02 -1.55391892E-02 -5.59365148E-02
 -2.65640756E-18 -2.71866430E-17 -8.74921903E-02 -4.15497670E-18 -8.11423840E-17
  5.94570328E-02 -9.66315726E-17 -4.58900311E-33 -7.85106222E-02 -7.45688970E-18
  0.00000000E+00  0.00000000E+00  0.00000000E+00  0.00000000E+00  0.00000000E+00
  0.00000000E+00  0.00000000E+00  0.00000000E+00  0.00000000E+00  1.00000000E+00
 -9.92240737E-02 -2.45624582E-01 -2.92364759E-01 -8.14323653E-02 -2.17413793E-01
  8.99482364E-18  1.11523758E-01 -1.58289249E-01  1.03967232E-17  8.78155523E-03
  2.93826924E-02  2.04794041E-18 -7.64876578E-02  6.88047410E-02  1.07546103E-01
 -4.49234587E-18 -7.76466473E-02  8.88800260E-18  1.49862160E-01 -4.90174701E-03
  3.54071724E-19  5.96506243E-02  5.22066280E-18 -1.29613745E-01  4.15361731E-02
 -4.15886703E-18  2.04970010E-02 -3.64326965E-18  4.18482077E-02  2.79747347E-18
  2.82712704E-17  6.59779823E-17  2.37709173E-17  5.99493573E-17  3.17312169E-33
 -2.50699657E-02  1.22568597E-16  7.44894978E-33 -1.17704225E-01 -1.03477479E-16
 -1.06236152E-01 -5.71609877E-18  1.22743215E-16  1.34463781E-32  0.00000000E+00
  0.00000000E+00  0.00000000E+00  0.00000000E+00  0.00000000E+00  0.00000000E+00
  0.00000000E+00  0.00000000E+00  0.00000000E+00  0.00000000E+00  1.00000000E+00
  2.72720409E-18  6.75106694E-18  8.03573504E-18  2.23819352E-18  8.99482364E-18
  1.09845560E-01 -3.06526467E-18  1.03967232E-17  2.19975522E-01 -2.41363738E-19
  2.04794041E-18  1.03893064E-01  2.10228672E-18 -1.89111940E-18 -4.49234587E-18