                  Welcome to Q-Chem
     A Quantum Leap Into The Future Of Chemistry

 Y. Shao, L. Fusti-Molnar, Y. Jung, J. Kussmann, C. Ochsenfeld,
 S. T. Brown, A. T. B. Gilbert, L. V. Slipchenko,S. V. Levchenko,
 D. P. O'Neill, R. A. DiStasio Jr., R. C. Lochan, T. Wang,
 G. J. O. Beran, N. A. Besley, J. M. Herbert, C. Y. Lin,
 T. Van Voorhis, S. H. Chien, A. Sodt, R. P. Steele, 
 V. A. Rassolov, P. E. Maslen, P. P. Korambath, R. D. Adamson,
 B. Austin, J. Baker, E. F. C. Byrd, H. Dachsel, R. J. Doerksen,
 A. Dreuw, B. D. Dunietz, A. D. Dutoi, T. R. Furlani,
 S. R. Gwaltney, A. Heyden, S. Hirata, C.-P. Hsu, G. Kedziora,
 R. Z. Khaliullin, P. Klunzinger, A. M. Lee, M. S. Lee, W. Liang,
 I. Lotan, N. Nair, B. Peters, E. I. Proynov, P. A. Pieniazek, 
 Y. M. Rhee, J. Ritchie, E. Rosta, C. D. Sherrill, 
 A. C. Simmonett, J. E. Subotnik, H. L. Woodcock III,
 W. Zhang, A. T. Bell, A. K. Chakraborty, D. M. Chipman,
 F. J. Keil, A. Warshel, W. J. Hehre, H. F. Schaefer III,
 J. Kong, A. I. Krylov, P. M. W. Gill, M. Head-Gordon,

 Additional authors for Version 3.1: 
 Z. Gan, Y. Zhao, N. E. Schultz, D. Truhlar, E. Epifanovsky and M. Oana.

 Additional authors for Version 3.2: 
 R. Baer, B. R. Brooks, D. Casanova, J.-D. Chai, C.-L. Cheng, 
 C. Cramer, D. Crittenden, A. Ghysels, G. Hawkins, E. G. Hohenstein, 
 C. Kelley, W. Kurlancheek, D. Liotard, E. Livshits, P. Manohar, 
 A. Marenich, D. Neuhauser, R. Olson, M. A. Rohrdanz, K. S. Thanthiriwatte, 
 A. J. W. Thom, V. Vanovschi, C. F. Williams, Q. Wu and Z.-Q. You. 

 Additional authors for Version 4.0: 
 A. Aspuru-Guzik, C. Chang, R. G. Edgar, E. Sundstrom, J. Parkhill, K. Lawler,
 M. Gordon, M. Schmidt, N. Shenvi, D. Lambrecht, M. Goldey, R. Olivares-Amaya,
 Y. Bernard, L. Vogt, M. Watson, J. Liu, S. Yeganeh, B. Kaduk, O. Vydrov, X. Xu, 
 I. Kaliman, K. Khistyaev, N. Russ, I.Y. Zhang, W.A. Goddard III, F. Liu, R. King ,
 A. Landau, M. Wormit, A. Dreuw, M. Diedenhofen, A. Klamt, A.W. Lange, D. Ghosh,
 D. Kosenkov, T. Kus, A. Landau, D. Zuev, J. Deng, S.P. Mao, Y.C. Su, D. Small
 
 Q-Chem, Version 4.0, Q-Chem, Inc., Pittsburgh, PA (2007).


 Unrecognized platform!!! 4.0.0.1 

 Q-chem begins on Thu Aug 30 14:16:57 2012  

Host: v1352
0

theFileMan(): MAXOPENFILES=16334 MAX_SUB_FILE_NUM=16
Maximum size of a physical file is 2.0 GB, maximum size of a tmp-file is 32.0 GB

Finally everything over in PARseQInput

--------------------------------------------------------------
User input:
--------------------------------------------------------------
$molecule
1 1
  C   -0.7578981    2.4222547   -0.0868631
  C    0.7578981    2.4222547    0.0868631
  O    1.2471272    1.2471272   -0.5290139
  C    2.4222547    0.7578981    0.0868631
  C    2.4222547   -0.7578981   -0.0868631
  O    1.2471272   -1.2471272    0.5290139
  C    0.7578981   -2.4222547   -0.0868631
  C   -0.7578981   -2.4222547    0.0868631
  O   -1.2471272   -1.2471272   -0.5290139
  C   -2.4222547   -0.7578981    0.0868631
  C   -2.4222547    0.7578981   -0.0868631
  O   -1.2471272    1.2471272    0.5290139
  H   -0.9586322    2.4693707   -1.1819539
  H   -1.1903095    3.3182469    0.4082829
  H    0.9586322    2.4693707    1.1819539
  H    1.1903095    3.3182469   -0.4082829
  H    2.4693707    0.9586322    1.1819539
  H    3.3182469    1.1903095   -0.4082829
  H    3.3182469   -1.1903095    0.4082829
  H    2.4693707   -0.9586322   -1.1819539
  H    1.1903095   -3.3182469    0.4082829
  H    0.9586322   -2.4693707   -1.1819539
  H   -0.9586322   -2.4693707    1.1819539
  H   -1.1903095   -3.3182469   -0.4082829
  H   -2.4693707   -0.9586322    1.1819539
  H   -3.3182469   -1.1903095   -0.4082829
  H   -3.3182469    1.1903095    0.4082829
  H   -2.4693707    0.9586322   -1.1819539
 Li   -0.0000000   -0.0000000   -0.0000000
$end

$rem
   BASIS  =  6-31G
   EXCHANGE  =  HF
   GUI  =  2
   JOB_TYPE  =  Optimization
$end

--------------------------------------------------------------
 ----------------------------------------------------
       Standard Nuclear Orientation (Angstroms)
    I     Atom         X            Y            Z
 ----------------------------------------------------
    1      C       2.248708     1.176878     0.086863
    2      C       1.176878     2.248708    -0.086863
    3      O       0.000000     1.763704     0.529014
    4      C      -1.176878     2.248708    -0.086863
    5      C      -2.248708     1.176878     0.086863
    6      O      -1.763704     0.000000    -0.529014
    7      C      -2.248708    -1.176878     0.086863
    8      C      -1.176878    -2.248708    -0.086863
    9      O       0.000000    -1.763704     0.529014
   10      C       1.176878    -2.248708    -0.086863
   11      C       2.248708    -1.176878     0.086863
   12      O       1.763704     0.000000    -0.529014
   13      H       2.423964     1.068253     1.181954
   14      H       3.188031     1.504679    -0.408283
   15      H       1.068253     2.423964    -1.181954
   16      H       1.504679     3.188031     0.408283
   17      H      -1.068253     2.423964    -1.181954
   18      H      -1.504679     3.188031     0.408283
   19      H      -3.188031     1.504679    -0.408283
   20      H      -2.423964     1.068253     1.181954
   21      H      -3.188031    -1.504679    -0.408283
   22      H      -2.423964    -1.068253     1.181954
   23      H      -1.068253    -2.423964    -1.181954
   24      H      -1.504679    -3.188031     0.408283
   25      H       1.068253    -2.423964    -1.181954
   26      H       1.504679    -3.188031     0.408283
   27      H       3.188031    -1.504679    -0.408283
   28      H       2.423964    -1.068253     1.181954
   29      Li      0.000000     0.000000     0.000000
 ----------------------------------------------------
 Molecular Point Group                 D2d   NOp =  8
 Largest Abelian Subgroup              D2    NOp =  4
 Nuclear Repulsion Energy =   882.7654389751 hartrees
 There are       49 alpha and       49 beta electrons
 Requested basis set is 6-31G
 There are 71 shells and 149 basis functions

Total QAlloc Memory Limit   2000 MB
Mega-Array Size        61 MB
MEM_STATIC part        62 MB
 A cutoff of  1.0D-11 yielded   2190 shell pairs
 There are     10509 function pairs
 Smallest overlap matrix eigenvalue = 5.85E-03

  Scale SEOQF with 1.000000e-01/1.000000e-01/1.000000e-01

 Standard Electronic Orientation quadrupole field applied
 Nucleus-field energy     =     0.0000000279 hartrees
 Guess from superposition of atomic densities
 Warning:  Energy on first SCF cycle will be non-variational
 A restricted Hartree-Fock SCF calculation will be
 performed using Pulay DIIS extrapolation
 SCF converges when DIIS error is below 1.0E-08
 ---------------------------------------
  Cycle       Energy         DIIS Error
 ---------------------------------------
    1    -623.6281723530      8.63E-02
    2    -618.5653859051      6.77E-03
    3    -618.7113614789      2.96E-03
    4    -618.7312999897      8.44E-04
    5    -618.7332646921      1.82E-04
    6    -618.7333751108      3.11E-05
    7    -618.7333803930      5.77E-06
    8    -618.7333806180      1.25E-06
    9    -618.7333806286      1.83E-07
   10    -618.7333806290      2.91E-08
   11    -618.7333806275      4.25E-09 Convergence criterion met
 ---------------------------------------
 SCF time:  CPU 3.69 s  wall 4.45 s
 SCF   energy in the final basis set = -618.7333806275
 Total energy in the final basis set = -618.7333806275
 Analysis of SCF Wavefunction
 
 --------------------------------------------------------------
             Orbital Energies (a.u.) and Symmetries
 --------------------------------------------------------------
 
 Alpha MOs, Restricted
 -- Occupied --                  
-20.745 -20.745 -20.745 -20.745 -11.442 -11.442 -11.442 -11.442
  1 B2    1 E     1 E     1 A1    2 E     2 E     1 B1    2 A1                 
-11.441 -11.441 -11.441 -11.441  -2.518  -1.592  -1.574  -1.574
  1 A2    3 E     3 E     2 B2    3 A1    4 A1    4 E     4 E                  
 -1.549  -1.236  -1.178  -1.178  -1.099  -1.016  -0.992  -0.992
  3 B2    2 B1    5 E     5 E     5 A1    2 A2    6 E     6 E                  
 -0.985  -0.873  -0.873  -0.860  -0.841  -0.830  -0.825  -0.806
  4 B2    7 E     7 E     6 A1    3 B1    5 B2    3 A2    7 A1                 
 -0.779  -0.779  -0.761  -0.761  -0.712  -0.712  -0.691  -0.689
  8 E     8 E     9 E     9 E    10 E    10 E     6 B2    4 A2                 
 -0.675  -0.642  -0.629  -0.629  -0.626  -0.612  -0.594  -0.594
  4 B1    8 A1   11 E    11 E     5 B1    7 B2   12 E    12 E                  
 -0.594
  9 A1                                                                         
 -- Virtual --                   
 -0.012   0.020   0.020   0.025   0.109   0.120   0.123   0.132
  8 B2   13 E    13 E    10 A1    9 B2   11 A1    6 B1   10 B2                 
  0.140   0.140   0.163   0.163   0.165   0.172   0.181   0.181
 14 E    14 E    15 E    15 E    11 B2   12 A1   16 E    16 E                  
  0.183   0.190   0.211   0.211   0.219   0.219   0.220   0.221
  5 A2    7 B1   17 E    17 E    18 E    18 E     6 A2   13 A1                 
  0.247   0.259   0.259   0.288   0.289   0.302   0.309   0.309
 12 B2   19 E    19 E     8 B1   13 B2    7 A2   20 E    20 E                  
  0.373   0.376   0.421   0.421   0.576   0.657   0.657   0.674
  8 A2   14 A1   21 E    21 E    15 A1    9 A2   14 B2   22 E                  
  0.674   0.675   0.695   0.706   0.706   0.716   0.716   0.755
 22 E     9 B1   16 A1   23 E    23 E    24 E    24 E    25 E                  
  0.755   0.772   0.774   0.824   0.848   0.859   0.859   0.867
 25 E    10 B1   15 B2   10 A2   16 B2   26 E    26 E    17 A1                 
  0.907   0.975   0.982   0.982   1.005   1.016   1.026   1.026
 11 B1   18 A1   27 E    27 E    11 A2   17 B2   28 E    28 E                  
  1.037   1.045   1.050   1.050   1.051   1.070   1.088   1.088
 12 B1   18 B2   29 E    29 E    19 A1   12 A2   30 E    30 E                  
  1.099   1.125   1.152   1.152   1.176   1.254   1.256   1.335
 13 A2   13 B1   31 E    31 E    20 A1   14 B1   19 B2   21 A1                 
  1.336   1.336   1.356   1.356   1.374   1.374   1.423   1.491
 32 E    32 E    33 E    33 E    34 E    34 E    22 A1   20 B2                 
  1.522   1.552   1.638   1.638   1.871   1.871   1.880   1.915
 21 B2   14 A2   35 E    35 E    36 E    36 E    15 B1   15 A2                 
  2.023   2.100   2.116   2.116
 23 A1   22 B2   37 E    37 E                                                  
 
 Beta MOs, Restricted
 -- Occupied --                  
-20.745 -20.745 -20.745 -20.745 -11.442 -11.442 -11.442 -11.442
  1 B2    1 E     1 E     1 A1    2 E     2 E     1 B1    2 A1                 
-11.441 -11.441 -11.441 -11.441  -2.518  -1.592  -1.574  -1.574
  1 A2    3 E     3 E     2 B2    3 A1    4 A1    4 E     4 E                  
 -1.549  -1.236  -1.178  -1.178  -1.099  -1.016  -0.992  -0.992
  3 B2    2 B1    5 E     5 E     5 A1    2 A2    6 E     6 E                  
 -0.985  -0.873  -0.873  -0.860  -0.841  -0.830  -0.825  -0.806
  4 B2    7 E     7 E     6 A1    3 B1    5 B2    3 A2    7 A1                 
 -0.779  -0.779  -0.761  -0.761  -0.712  -0.712  -0.691  -0.689
  8 E     8 E     9 E     9 E    10 E    10 E     6 B2    4 A2                 
 -0.675  -0.642  -0.629  -0.629  -0.626  -0.612  -0.594  -0.594
  4 B1    8 A1   11 E    11 E     5 B1    7 B2   12 E    12 E                  
 -0.594
  9 A1                                                                         
 -- Virtual --                   
 -0.012   0.020   0.020   0.025   0.109   0.120   0.123   0.132
  8 B2   13 E    13 E    10 A1    9 B2   11 A1    6 B1   10 B2                 
  0.140   0.140   0.163   0.163   0.165   0.172   0.181   0.181
 14 E    14 E    15 E    15 E    11 B2   12 A1   16 E    16 E                  
  0.183   0.190   0.211   0.211   0.219   0.219   0.220   0.221
  5 A2    7 B1   17 E    17 E    18 E    18 E     6 A2   13 A1                 
  0.247   0.259   0.259   0.288   0.289   0.302   0.309   0.309
 12 B2   19 E    19 E     8 B1   13 B2    7 A2   20 E    20 E                  
  0.373   0.376   0.421   0.421   0.576   0.657   0.657   0.674
  8 A2   14 A1   21 E    21 E    15 A1    9 A2   14 B2   22 E                  
  0.674   0.675   0.695   0.706   0.706   0.716   0.716   0.755
 22 E     9 B1   16 A1   23 E    23 E    24 E    24 E    25 E                  
  0.755   0.772   0.774   0.824   0.848   0.859   0.859   0.867
 25 E    10 B1   15 B2   10 A2   16 B2   26 E    26 E    17 A1                 
  0.907   0.975   0.982   0.982   1.005   1.016   1.026   1.026
 11 B1   18 A1   27 E    27 E    11 A2   17 B2   28 E    28 E                  
  1.037   1.045   1.050   1.050   1.051   1.070   1.088   1.088
 12 B1   18 B2   29 E    29 E    19 A1   12 A2   30 E    30 E                  
  1.099   1.125   1.152   1.152   1.176   1.254   1.256   1.335
 13 A2   13 B1   31 E    31 E    20 A1   14 B1   19 B2   21 A1                 
  1.336   1.336   1.356   1.356   1.374   1.374   1.423   1.491
 32 E    32 E    33 E    33 E    34 E    34 E    22 A1   20 B2                 
  1.522   1.552   1.638   1.638   1.871   1.871   1.880   1.915
 21 B2   14 A2   35 E    35 E    36 E    36 E    15 B1   15 A2                 
  2.023   2.100   2.116   2.116
 23 A1   22 B2   37 E    37 E                                                  
 --------------------------------------------------------------
 
          Ground-State Mulliken Net Atomic Charges

     Atom                 Charge (a.u.)
  ----------------------------------------
      1 C                    -0.021964
      2 C                    -0.021964
      3 O                    -0.773542
      4 C                    -0.021964
      5 C                    -0.021964
      6 O                    -0.773542
      7 C                    -0.021964
      8 C                    -0.021964
      9 O                    -0.773542
     10 C                    -0.021964
     11 C                    -0.021964
     12 O                    -0.773542
     13 H                     0.218447
     14 H                     0.223789
     15 H                     0.218447
     16 H                     0.223789
     17 H                     0.218447
     18 H                     0.223789
     19 H                     0.223789
     20 H                     0.218447
     21 H                     0.223789
     22 H                     0.218447
     23 H                     0.218447
     24 H                     0.223789
     25 H                     0.218447
     26 H                     0.223789
     27 H                     0.223789
     28 H                     0.218447
     29 Li                    0.731997
  ----------------------------------------
  Sum of atomic charges =     1.000000

 -----------------------------------------------------------------
                    Cartesian Multipole Moments
 -----------------------------------------------------------------
    Charge (ESU x 10^10)
                 4.8032
    Dipole Moment (Debye)
         X       0.0000      Y       0.0000      Z       0.0000
       Tot       0.0000
    Quadrupole Moments (Debye-Ang)
        XX     -46.8083     XY       0.0000     YY     -46.8083
        XZ       0.0000     YZ       0.0000     ZZ     -76.3644
    Octapole Moments (Debye-Ang^2)
       XXX       0.0000    XXY       0.0000    XYY       0.0000
       YYY       0.0000    XXZ       8.5552    XYZ       0.0000
       YYZ      -8.5552    XZZ       0.0000    YZZ       0.0000
       ZZZ       0.0000
    Hexadecapole Moments (Debye-Ang^3)
      XXXX   -1166.7407   XXXY       0.0000   XXYY    -347.8161
      XYYY       0.0000   YYYY   -1166.7407   XXXZ       0.0000
      XXYZ       0.0000   XYYZ       0.0000   YYYZ       0.0000
      XXZZ    -246.3708   XYZZ       0.0000   YYZZ    -246.3708
      XZZZ       0.0000   YZZZ       0.0000   ZZZZ    -160.2916
 -----------------------------------------------------------------
 Calculating analytic gradient of the SCF energy
 Gradient of Coulomb and Exchange Energy
            1           2           3           4           5           6
    1  -4.1120616  -0.8995196  -0.0000000   0.8995196   4.1120616   8.3879028
    2  -0.8995196  -4.1120616  -8.3879028  -4.1120616  -0.8995196   0.0000000
    3   1.6517369  -1.6517369  -8.2018858  -1.6517369   1.6517369   8.2018858
            7           8           9          10          11          12
    1   4.1120616   0.8995196   0.0000000  -0.8995196  -4.1120616  -8.3879028
    2   0.8995196   4.1120616   8.3879028   4.1120616   0.8995196   0.0000000
    3   1.6517369  -1.6517369  -8.2018858  -1.6517369   1.6517369   8.2018858
           13          14          15          16          17          18
    1  -1.8061569  -5.0121312  -0.6989847  -2.0207470   0.6989847   2.0207470
    2  -0.6989847  -2.0207470  -1.8061569  -5.0121312  -1.8061569  -5.0121312
    3  -5.5062030   2.2673980   5.5062030  -2.2673980   5.5062030  -2.2673980
           19          20          21          22          23          24
    1   5.0121312   1.8061569   5.0121312   1.8061569   0.6989847   2.0207470
    2  -2.0207470  -0.6989847   2.0207470   0.6989847   1.8061569   5.0121312
    3   2.2673980  -5.5062030   2.2673980  -5.5062030   5.5062030  -2.2673980
           25          26          27          28          29
    1  -0.6989847  -2.0207470  -5.0121312  -1.8061569  -0.0000000
    2   1.8061569   5.0121312   2.0207470   0.6989847   0.0000000
    3   5.5062030  -2.2673980   2.2673980  -5.5062030  -0.0000000
 Gradient of SCF Energy
            1           2           3           4           5           6
    1  -0.0225887  -0.0528765   0.0000000   0.0528765   0.0225887  -0.0001360
    2  -0.0528765  -0.0225887   0.0001360  -0.0225887  -0.0528765  -0.0000000
    3  -0.0092640   0.0092640   0.0210827   0.0092640  -0.0092640  -0.0210827
            7           8           9          10          11          12
    1   0.0225887   0.0528765  -0.0000000  -0.0528765  -0.0225887   0.0001360
    2   0.0528765   0.0225887  -0.0001360   0.0225887   0.0528765   0.0000000
    3  -0.0092640   0.0092640   0.0210827   0.0092640  -0.0092640  -0.0210827
           13          14          15          16          17          18
    1   0.0012325   0.0158042   0.0077278   0.0070762  -0.0077278  -0.0070762
    2   0.0077278   0.0070762   0.0012325   0.0158042   0.0012325   0.0158042
    3   0.0224489  -0.0113926  -0.0224489   0.0113926  -0.0224489   0.0113926
           19          20          21          22          23          24
    1  -0.0158042  -0.0012325  -0.0158042  -0.0012325  -0.0077278  -0.0070762
    2   0.0070762   0.0077278  -0.0070762  -0.0077278  -0.0012325  -0.0158042
    3  -0.0113926   0.0224489  -0.0113926   0.0224489  -0.0224489   0.0113926
           25          26          27          28          29
    1   0.0077278   0.0070762   0.0158042   0.0012325  -0.0000000
    2  -0.0012325  -0.0158042  -0.0070762  -0.0077278   0.0000000
    3  -0.0224489   0.0113926  -0.0113926   0.0224489   0.0000000
 Max gradient component =       5.288E-02
 RMS gradient           =       2.059E-02
 Gradient time:  CPU 7.25 s  wall 7.74 s
 Geometry Optimization Parameters
   NAtoms,    NIC,     NZ,  NCons,   NDum,   NFix, NCnnct, MaxDiis
       29     788       0       0       0       0       0       0


** GEOMETRY OPTIMIZATION IN DELOCALIZED INTERNAL COORDINATES **
   Searching for a Minimum

   Optimization Cycle:   1

                       Coordinates (Angstroms)
     ATOM              X           Y           Z
      1  C         2.248708    1.176878    0.086863
      2  C         1.176878    2.248708   -0.086863
      3  O         0.000000    1.763704    0.529014
      4  C        -1.176878    2.248708   -0.086863
      5  C        -2.248708    1.176878    0.086863
      6  O        -1.763704    0.000000   -0.529014
      7  C        -2.248708   -1.176878    0.086863
      8  C        -1.176878   -2.248708   -0.086863
      9  O         0.000000   -1.763704    0.529014
     10  C         1.176878   -2.248708   -0.086863
     11  C         2.248708   -1.176878    0.086863
     12  O         1.763704    0.000000   -0.529014
     13  H         2.423964    1.068253    1.181954
     14  H         3.188031    1.504679   -0.408283
     15  H         1.068253    2.423964   -1.181954
     16  H         1.504679    3.188031    0.408283
     17  H        -1.068253    2.423964   -1.181954
     18  H        -1.504679    3.188031    0.408283
     19  H        -3.188031    1.504679   -0.408283
     20  H        -2.423964    1.068253    1.181954
     21  H        -3.188031   -1.504679   -0.408283
     22  H        -2.423964   -1.068253    1.181954
     23  H        -1.068253   -2.423964   -1.181954
     24  H        -1.504679   -3.188031    0.408283
     25  H         1.068253   -2.423964   -1.181954
     26  H         1.504679   -3.188031    0.408283
     27  H         3.188031   -1.504679   -0.408283
     28  H         2.423964   -1.068253    1.181954
     29  Li        0.000000    0.000000    0.000000
   Point Group: d2d   Number of degrees of freedom:    11


   Energy is   -618.733380628


 Attempting to Generate Delocalized Internal Coordinates

 11 Hessian modes will be used to form the next step
  Hessian Eigenvalues:
     0.005018    0.011357    0.019725    0.023040    0.039284    0.065431
     0.088367    0.152437    0.283425    0.321455    0.324643

 Minimum Search - Taking Simple RFO Step
 Searching for Lamda that Minimizes Along All modes
 Value Taken    Lamda =  -0.04381283
 Calculated Step too Large.  Step scaled by  0.575238
 Step Taken.  Stepsize is  0.300000

                             Maximum     Tolerance    Cnvgd?
         Gradient           0.063305      0.000300      NO
         Displacement       0.132042      0.001200      NO
         Energy change     *********      0.000001      NO


 New Cartesian Coordinates Obtained by Inverse Iteration

 Displacement from previous Coordinates is:  0.221496
 ----------------------------------------------------
       Standard Nuclear Orientation (Angstroms)
    I     Atom         X            Y            Z
 ----------------------------------------------------
    1      C       2.264928     1.195060     0.087348
    2      C       1.195060     2.264928    -0.087348
    3      O       0.000000     1.777413     0.525513
    4      C      -1.195060     2.264928    -0.087348
    5      C      -2.264928     1.195060     0.087348
    6      O      -1.777413     0.000000    -0.525513
    7      C      -2.264928    -1.195060     0.087348
    8      C      -1.195060    -2.264928    -0.087348
    9      O       0.000000    -1.777413     0.525513
   10      C       1.195060    -2.264928    -0.087348
   11      C       2.264928    -1.195060     0.087348
   12      O       1.777413     0.000000    -0.525513
   13      H       2.439415     1.077169     1.163350
   14      H       3.189971     1.520656    -0.398287
   15      H       1.077169     2.439415    -1.163350
   16      H       1.520656     3.189971     0.398287
   17      H      -1.077169     2.439415    -1.163350
   18      H      -1.520656     3.189971     0.398287
   19      H      -3.189971     1.520656    -0.398287
   20      H      -2.439415     1.077169     1.163350
   21      H      -3.189971    -1.520656    -0.398287
   22      H      -2.439415    -1.077169     1.163350
   23      H      -1.077169    -2.439415    -1.163350
   24      H      -1.520656    -3.189971     0.398287
   25      H       1.077169    -2.439415    -1.163350
   26      H       1.520656    -3.189971     0.398287
   27      H       3.189971    -1.520656    -0.398287
   28      H       2.439415    -1.077169     1.163350
   29      Li      0.000000     0.000000     0.000000
 ----------------------------------------------------
 Molecular Point Group                 D2d   NOp =  8
 Largest Abelian Subgroup              D2    NOp =  4
 Nuclear Repulsion Energy =   878.1572198818 hartrees
 There are       49 alpha and       49 beta electrons
 Applying Cartesian multipole field
    Component          Value
    ---------          -----
     (2,0,0)        1.00000E-11
     (0,2,0)        2.00000E-11
     (0,0,2)       -3.00000E-11
 Nucleus-field energy     =     0.0000000284 hartrees
 Requested basis set is 6-31G
 There are 71 shells and 149 basis functions
 A cutoff of  1.0D-11 yielded   2182 shell pairs
 There are     10501 function pairs
 Smallest overlap matrix eigenvalue = 5.80E-03
 Guess MOs from SCF MO coefficient file
Reading MOs from coefficient file
Reading MOs from coefficient file
 A restricted Hartree-Fock SCF calculation will be
 performed using Pulay DIIS extrapolation
 SCF converges when DIIS error is below 1.0E-08
Geometry optimization detected.  Setting ReadMinima to 0
Setting SaveMinima to 0
 ---------------------------------------
  Cycle       Energy         DIIS Error
 ---------------------------------------
    1    -618.8827017927      1.91E-03
    2    -618.7531639558      3.17E-04
    3    -618.7535549230      1.14E-04
    4    -618.7535924668      1.93E-05
    5    -618.7535948717      4.65E-06
    6    -618.7535949721      2.40E-06
    7    -618.7535949945      4.41E-07
    8    -618.7535949972      9.12E-08
    9    -618.7535949969      1.44E-08
   10    -618.7535949951      2.90E-09 Convergence criterion met
 ---------------------------------------
 SCF time:  CPU 15.26 s  wall 15.36 s
 SCF   energy in the final basis set = -618.7535949951
 Total energy in the final basis set = -618.7535949951
 Analysis of SCF Wavefunction
 
 --------------------------------------------------------------
             Orbital Energies (a.u.) and Symmetries
 --------------------------------------------------------------
 Warning : Irrep of orbital(   5) could not be determined
 Warning : Irrep of orbital(   7) could not be determined
 
 Alpha MOs, Restricted
 -- Occupied --                  
-20.741 -20.741 -20.741 -20.741 -11.438 -11.438 -11.438 -11.438
  1 B2    1 E     1 E     1 A1    0 xxx   1 B1    0 xxx   2 A1                 
-11.438 -11.438 -11.438 -11.438  -2.513  -1.578  -1.560  -1.560
  1 A2    2 E     2 E     2 B2    3 A1    4 A1    3 E     3 E                  
 -1.535  -1.235  -1.178  -1.178  -1.105  -1.016  -0.994  -0.994
  3 B2    2 B1    4 E     4 E     5 A1    2 A2    5 E     5 E                  
 -0.987  -0.869  -0.869  -0.852  -0.838  -0.829  -0.825  -0.801
  4 B2    6 E     6 E     6 A1    3 B1    5 B2    3 A2    7 A1                 
 -0.771  -0.771  -0.762  -0.762  -0.715  -0.715  -0.692  -0.685
  7 E     7 E     8 E     8 E     9 E     9 E     4 A2    6 B2                 
 -0.677  -0.639  -0.633  -0.629  -0.629  -0.611  -0.596  -0.596
  4 B1    8 A1    5 B1   10 E    10 E     7 B2   11 E    11 E                  
 -0.596
  9 A1                                                                         
 -- Virtual --                   
 -0.010   0.021   0.021   0.026   0.113   0.117   0.126   0.132
  8 B2   12 E    12 E    10 A1    9 B2   11 A1    6 B1   10 B2                 
  0.140   0.140   0.166   0.166   0.166   0.174   0.184   0.184
 13 E    13 E    11 B2   14 E    14 E    12 A1   15 E    15 E                  
  0.188   0.196   0.213   0.213   0.223   0.223   0.223   0.224
  5 A2    7 B1   16 E    16 E    13 A1   17 E    17 E     6 A2                 
  0.249   0.256   0.256   0.284   0.287   0.298   0.310   0.310
 12 B2   18 E    18 E     8 B1   13 B2    7 A2   19 E    19 E                  
  0.370   0.374   0.417   0.417   0.566   0.652   0.652   0.665
  8 A2   14 A1   20 E    20 E    15 A1    9 A2   14 B2   21 E                  
  0.665   0.673   0.694   0.702   0.702   0.713   0.713   0.748
 21 E     9 B1   16 A1   22 E    22 E    23 E    23 E    24 E                  
  0.748   0.769   0.776   0.816   0.836   0.860   0.860   0.861
 24 E    15 B2   10 B1   10 A2   16 B2   25 E    25 E    17 A1                 
  0.893   0.991   0.997   0.997   1.013   1.027   1.027   1.030
 11 B1   18 A1   26 E    26 E    11 A2   27 E    27 E    17 B2                 
  1.052   1.063   1.065   1.065   1.066   1.081   1.096   1.096
 12 B1   18 B2   28 E    28 E    19 A1   12 A2   29 E    29 E                  
  1.114   1.137   1.163   1.163   1.173   1.253   1.254   1.335
 13 A2   13 B1   30 E    30 E    20 A1   14 B1   19 B2   31 E                  
  1.335   1.341   1.354   1.354   1.373   1.373   1.423   1.492
 31 E    21 A1   32 E    32 E    33 E    33 E    22 A1   20 B2                 
  1.520   1.556   1.641   1.641   1.860   1.860   1.868   1.900
 21 B2   14 A2   34 E    34 E    35 E    35 E    15 B1   15 A2                 
  2.017   2.107   2.114   2.114
 23 A1   22 B2   36 E    36 E                                                  
 
 Beta MOs, Restricted
 -- Occupied --                  
-20.741 -20.741 -20.741 -20.741 -11.438 -11.438 -11.438 -11.438
  1 B2    1 E     1 E     1 A1    0 xxx   1 B1    0 xxx   2 A1                 
-11.438 -11.438 -11.438 -11.438  -2.513  -1.578  -1.560  -1.560
  1 A2    2 E     2 E     2 B2    3 A1    4 A1    3 E     3 E                  
 -1.535  -1.235  -1.178  -1.178  -1.105  -1.016  -0.994  -0.994
  3 B2    2 B1    4 E     4 E     5 A1    2 A2    5 E     5 E                  
 -0.987  -0.869  -0.869  -0.852  -0.838  -0.829  -0.825  -0.801
  4 B2    6 E     6 E     6 A1    3 B1    5 B2    3 A2    7 A1                 
 -0.771  -0.771  -0.762  -0.762  -0.715  -0.715  -0.692  -0.685
  7 E     7 E     8 E     8 E     9 E     9 E     4 A2    6 B2                 
 -0.677  -0.639  -0.633  -0.629  -0.629  -0.611  -0.596  -0.596
  4 B1    8 A1    5 B1   10 E    10 E     7 B2   11 E    11 E                  
 -0.596
  9 A1                                                                         
 -- Virtual --                   
 -0.010   0.021   0.021   0.026   0.113   0.117   0.126   0.132
  8 B2   12 E    12 E    10 A1    9 B2   11 A1    6 B1   10 B2                 
  0.140   0.140   0.166   0.166   0.166   0.174   0.184   0.184
 13 E    13 E    11 B2   14 E    14 E    12 A1   15 E    15 E                  
  0.188   0.196   0.213   0.213   0.223   0.223   0.223   0.224
  5 A2    7 B1   16 E    16 E    13 A1   17 E    17 E     6 A2                 
  0.249   0.256   0.256   0.284   0.287   0.298   0.310   0.310
 12 B2   18 E    18 E     8 B1   13 B2    7 A2   19 E    19 E                  
  0.370   0.374   0.417   0.417   0.566   0.652   0.652   0.665
  8 A2   14 A1   20 E    20 E    15 A1    9 A2   14 B2   21 E                  
  0.665   0.673   0.694   0.702   0.702   0.713   0.713   0.748
 21 E     9 B1   16 A1   22 E    22 E    23 E    23 E    24 E                  
  0.748   0.769   0.776   0.816   0.836   0.860   0.860   0.861
 24 E    15 B2   10 B1   10 A2   16 B2   25 E    25 E    17 A1                 
  0.893   0.991   0.997   0.997   1.013   1.027   1.027   1.030
 11 B1   18 A1   26 E    26 E    11 A2   27 E    27 E    17 B2                 
  1.052   1.063   1.065   1.065   1.066   1.081   1.096   1.096
 12 B1   18 B2   28 E    28 E    19 A1   12 A2   29 E    29 E                  
  1.114   1.137   1.163   1.163   1.173   1.253   1.254   1.335
 13 A2   13 B1   30 E    30 E    20 A1   14 B1   19 B2   31 E                  
  1.335   1.341   1.354   1.354   1.373   1.373   1.423   1.492
 31 E    21 A1   32 E    32 E    33 E    33 E    22 A1   20 B2                 
  1.520   1.556   1.641   1.641   1.860   1.860   1.868   1.900
 21 B2   14 A2   34 E    34 E    35 E    35 E    15 B1   15 A2                 
  2.017   2.107   2.114   2.114
 23 A1   22 B2   36 E    36 E                                                  
 --------------------------------------------------------------
 
          Ground-State Mulliken Net Atomic Charges

     Atom                 Charge (a.u.)
  ----------------------------------------
      1 C                    -0.016005
      2 C                    -0.016005
      3 O                    -0.780796
      4 C                    -0.016005
      5 C                    -0.016005
      6 O                    -0.780796
      7 C                    -0.016005
      8 C                    -0.016005
      9 O                    -0.780796
     10 C                    -0.016005
     11 C                    -0.016005
     12 O                    -0.780796
     13 H                     0.216977
     14 H                     0.223127
     15 H                     0.216977
     16 H                     0.223127
     17 H                     0.216977
     18 H                     0.223127
     19 H                     0.223127
     20 H                     0.216977
     21 H                     0.223127
     22 H                     0.216977
     23 H                     0.216977
     24 H                     0.223127
     25 H                     0.216977
     26 H                     0.223127
     27 H                     0.223127
     28 H                     0.216977
     29 Li                    0.730391
  ----------------------------------------
  Sum of atomic charges =     1.000000

 -----------------------------------------------------------------
                    Cartesian Multipole Moments
 -----------------------------------------------------------------
    Charge (ESU x 10^10)
                 4.8032
    Dipole Moment (Debye)
         X       0.0000      Y       0.0000      Z       0.0000
       Tot       0.0000
    Quadrupole Moments (Debye-Ang)
        XX     -45.6709     XY       0.0000     YY     -45.6709
        XZ       0.0000     YZ       0.0000     ZZ     -76.3851
    Octapole Moments (Debye-Ang^2)
       XXX       0.0000    XXY       0.0000    XYY       0.0000
       YYY       0.0000    XXZ       9.2631    XYZ       0.0000
       YYZ      -9.2631    XZZ       0.0000    YZZ       0.0000
       ZZZ       0.0000
    Hexadecapole Moments (Debye-Ang^3)
      XXXX   -1171.3693   XXXY       0.0000   XXYY    -345.5939
      XYYY       0.0000   YYYY   -1171.3693   XXXZ       0.0000
      XXYZ       0.0000   XYYZ       0.0000   YYYZ       0.0000
      XXZZ    -248.9495   XYZZ       0.0000   YYZZ    -248.9495
      XZZZ       0.0000   YZZZ       0.0000   ZZZZ    -157.9535
 -----------------------------------------------------------------
 Calculating analytic gradient of the SCF energy
 Gradient of Coulomb and Exchange Energy
            1           2           3           4           5           6
    1  -4.1901888  -1.0986478   0.0000000   1.0986478   4.1901888   8.2670359
    2  -1.0986478  -4.1901888  -8.2670359  -4.1901888  -1.0986478   0.0000000
    3   1.6985476  -1.6985476  -7.9087534  -1.6985476   1.6985476   7.9087534
            7           8           9          10          11          12
    1   4.1901888   1.0986478  -0.0000000  -1.0986478  -4.1901888  -8.2670359
    2   1.0986478   4.1901888   8.2670359   4.1901888   1.0986478  -0.0000000
    3   1.6985476  -1.6985476  -7.9087534  -1.6985476   1.6985476   7.9087534
           13          14          15          16          17          18
    1  -1.8190105  -5.0183054  -0.5988214  -2.0497139   0.5988214   2.0497139
    2  -0.5988214  -2.0497139  -1.8190105  -5.0183054  -1.8190105  -5.0183054
    3  -5.4829180   2.2091828   5.4829180  -2.2091828   5.4829180  -2.2091828
           19          20          21          22          23          24
    1   5.0183054   1.8190105   5.0183054   1.8190105   0.5988214   2.0497139
    2  -2.0497139  -0.5988214   2.0497139   0.5988214   1.8190105   5.0183054
    3   2.2091828  -5.4829180   2.2091828  -5.4829180   5.4829180  -2.2091828
           25          26          27          28          29
    1  -0.5988214  -2.0497139  -5.0183054  -1.8190105  -0.0000000
    2   1.8190105   5.0183054   2.0497139   0.5988214   0.0000000
    3   5.4829180  -2.2091828   2.2091828  -5.4829180  -0.0000000
 Gradient of SCF Energy
            1           2           3           4           5           6
    1  -0.0098362  -0.0372162  -0.0000000   0.0372162   0.0098362   0.0035038
    2  -0.0372162  -0.0098362  -0.0035038  -0.0098362  -0.0372162  -0.0000000
    3  -0.0037527   0.0037527   0.0222404   0.0037527  -0.0037527  -0.0222404
            7           8           9          10          11          12
    1   0.0098362   0.0372162  -0.0000000  -0.0372162  -0.0098362  -0.0035038
    2   0.0372162   0.0098362   0.0035038   0.0098362   0.0372162  -0.0000000
    3  -0.0037527   0.0037527   0.0222404   0.0037527  -0.0037527  -0.0222404
           13          14          15          16          17          18
    1  -0.0001236   0.0072213   0.0075538   0.0050227  -0.0075538  -0.0050227
    2   0.0075538   0.0050227  -0.0001236   0.0072213  -0.0001236   0.0072213
    3   0.0112457  -0.0053069  -0.0112457   0.0053069  -0.0112457   0.0053069
           19          20          21          22          23          24
    1  -0.0072213   0.0001236  -0.0072213   0.0001236  -0.0075538  -0.0050227
    2   0.0050227   0.0075538  -0.0050227  -0.0075538   0.0001236  -0.0072213
    3  -0.0053069   0.0112457  -0.0053069   0.0112457  -0.0112457   0.0053069
           25          26          27          28          29
    1   0.0075538   0.0050227   0.0072213  -0.0001236  -0.0000000
    2   0.0001236  -0.0072213  -0.0050227  -0.0075538   0.0000000
    3  -0.0112457   0.0053069  -0.0053069   0.0112457  -0.0000000
 Max gradient component =       3.722E-02
 RMS gradient           =       1.369E-02
 Gradient time:  CPU 7.33 s  wall 7.35 s
 Geometry Optimization Parameters
   NAtoms,    NIC,     NZ,  NCons,   NDum,   NFix, NCnnct, MaxDiis
       29     822       0       0       0       0       0       0

 Cartesian Hessian Update
 Hessian Updated using BFGS Update


** GEOMETRY OPTIMIZATION IN DELOCALIZED INTERNAL COORDINATES **
   Searching for a Minimum

   Optimization Cycle:   2

                       Coordinates (Angstroms)
     ATOM              X           Y           Z
      1  C         2.264928    1.195060    0.087348
      2  C         1.195060    2.264928   -0.087348
      3  O         0.000000    1.777413    0.525513
      4  C        -1.195060    2.264928   -0.087348
      5  C        -2.264928    1.195060    0.087348
      6  O        -1.777413    0.000000   -0.525513
      7  C        -2.264928   -1.195060    0.087348
      8  C        -1.195060   -2.264928   -0.087348
      9  O         0.000000   -1.777413    0.525513
     10  C         1.195060   -2.264928   -0.087348
     11  C         2.264928   -1.195060    0.087348
     12  O         1.777413    0.000000   -0.525513
     13  H         2.439415    1.077169    1.163350
     14  H         3.189971    1.520656   -0.398287
     15  H         1.077169    2.439415   -1.163350
     16  H         1.520656    3.189971    0.398287
     17  H        -1.077169    2.439415   -1.163350
     18  H        -1.520656    3.189971    0.398287
     19  H        -3.189971    1.520656   -0.398287
     20  H        -2.439415    1.077169    1.163350
     21  H        -3.189971   -1.520656   -0.398287
     22  H        -2.439415   -1.077169    1.163350
     23  H        -1.077169   -2.439415   -1.163350
     24  H        -1.520656   -3.189971    0.398287
     25  H         1.077169   -2.439415   -1.163350
     26  H         1.520656   -3.189971    0.398287
     27  H         3.189971   -1.520656   -0.398287
     28  H         2.439415   -1.077169    1.163350
     29  Li        0.000000    0.000000    0.000000
   Point Group: d2d   Number of degrees of freedom:    11


   Energy is   -618.753594995

 Hessian Updated using BFGS Update

 11 Hessian modes will be used to form the next step
  Hessian Eigenvalues:
     0.005014    0.011346    0.019738    0.022372    0.039866    0.065646
     0.086596    0.148666    0.267854    0.323159    0.343836

 Minimum Search - Taking Simple RFO Step
 Searching for Lamda that Minimizes Along All modes
 Value Taken    Lamda =  -0.02265456
 Calculated Step too Large.  Step scaled by  0.530961
 Step Taken.  Stepsize is  0.300000

                             Maximum     Tolerance    Cnvgd?
         Gradient           0.032234      0.000300      NO
         Displacement       0.171467      0.001200      NO
         Energy change     -0.020214      0.000001      NO


 New Cartesian Coordinates Obtained by Inverse Iteration

 Displacement from previous Coordinates is:  0.167965
 ----------------------------------------------------
       Standard Nuclear Orientation (Angstroms)
    I     Atom         X            Y            Z
 ----------------------------------------------------
    1      C       2.278520     1.209795     0.088726
    2      C       1.209795     2.278520    -0.088726
    3      O       0.000000     1.790635     0.518764
    4      C      -1.209795     2.278520    -0.088726
    5      C      -2.278520     1.209795     0.088726
    6      O      -1.790635     0.000000    -0.518764
    7      C      -2.278520    -1.209795     0.088726
    8      C      -1.209795    -2.278520    -0.088726
    9      O       0.000000    -1.790635     0.518764
   10      C       1.209795    -2.278520    -0.088726
   11      C       2.278520    -1.209795     0.088726
   12      O       1.790635     0.000000    -0.518764
   13      H       2.454071     1.078276     1.154427
   14      H       3.195966     1.532077    -0.394889
   15      H       1.078276     2.454071    -1.154427
   16      H       1.532077     3.195966     0.394889
   17      H      -1.078276     2.454071    -1.154427
   18      H      -1.532077     3.195966     0.394889
   19      H      -3.195966     1.532077    -0.394889
   20      H      -2.454071     1.078276     1.154427
   21      H      -3.195966    -1.532077    -0.394889
   22      H      -2.454071    -1.078276     1.154427
   23      H      -1.078276    -2.454071    -1.154427
   24      H      -1.532077    -3.195966     0.394889
   25      H       1.078276    -2.454071    -1.154427
   26      H       1.532077    -3.195966     0.394889
   27      H       3.195966    -1.532077    -0.394889
   28      H       2.454071    -1.078276     1.154427
   29      Li      0.000000     0.000000     0.000000
 ----------------------------------------------------
 Molecular Point Group                 D2d   NOp =  8
 Largest Abelian Subgroup              D2    NOp =  4
 Nuclear Repulsion Energy =   874.1123783731 hartrees
 There are       49 alpha and       49 beta electrons
 Applying Cartesian multipole field
    Component          Value
    ---------          -----
     (2,0,0)        1.00000E-11
     (0,2,0)        2.00000E-11
     (0,0,2)       -3.00000E-11
 Nucleus-field energy     =     0.0000000288 hartrees
 Requested basis set is 6-31G
 There are 71 shells and 149 basis functions
 A cutoff of  1.0D-11 yielded   2182 shell pairs
 There are     10501 function pairs
 Smallest overlap matrix eigenvalue = 5.81E-03
 Guess MOs from SCF MO coefficient file
Reading MOs from coefficient file
Reading MOs from coefficient file
 A restricted Hartree-Fock SCF calculation will be
 performed using Pulay DIIS extrapolation
 SCF converges when DIIS error is below 1.0E-08
Geometry optimization detected.  Setting ReadMinima to 0
Setting SaveMinima to 0
 ---------------------------------------
  Cycle       Energy         DIIS Error
 ---------------------------------------
    1    -618.8329705052      1.23E-03
    2    -618.7633140378      2.15E-04
    3    -618.7634869744      7.50E-05
    4    -618.7635035477      1.40E-05
    5    -618.7635048043      4.07E-06
    6    -618.7635048751      1.87E-06
    7    -618.7635048917      3.33E-07
    8    -618.7635048937      6.58E-08
    9    -618.7635048930      1.07E-08
   10    -618.7635048927      1.96E-09 Convergence criterion met
 ---------------------------------------
 SCF time:  CPU 14.62 s  wall 14.81 s
 SCF   energy in the final basis set = -618.7635048927
 Total energy in the final basis set = -618.7635048927
 Analysis of SCF Wavefunction
 
 --------------------------------------------------------------
             Orbital Energies (a.u.) and Symmetries
 --------------------------------------------------------------
 Warning : Irrep of orbital(   5) could not be determined
 Warning : Irrep of orbital(   7) could not be determined
 
 Alpha MOs, Restricted
 -- Occupied --                  
-20.738 -20.738 -20.738 -20.738 -11.437 -11.437 -11.437 -11.437
  1 B2    1 E     1 E     1 A1    0 xxx   1 B1    0 xxx   2 A1                 
-11.436 -11.436 -11.436 -11.436  -2.510  -1.568  -1.550  -1.550
  1 A2    2 E     2 E     2 B2    3 A1    4 A1    3 E     3 E                  
 -1.526  -1.233  -1.178  -1.178  -1.107  -1.017  -0.994  -0.994
  3 B2    2 B1    4 E     4 E     5 A1    2 A2    5 E     5 E                  
 -0.986  -0.866  -0.866  -0.846  -0.836  -0.828  -0.822  -0.799
  4 B2    6 E     6 E     6 A1    3 B1    5 B2    3 A2    7 A1                 
 -0.766  -0.766  -0.761  -0.761  -0.717  -0.717  -0.694  -0.680
  7 E     7 E     8 E     8 E     9 E     9 E     4 A2    6 B2                 
 -0.678  -0.639  -0.637  -0.629  -0.629  -0.610  -0.596  -0.596
  4 B1    5 B1    8 A1   10 E    10 E     7 B2   11 E    11 E                  
 -0.595
  9 A1                                                                         
 -- Virtual --                   
 -0.009   0.022   0.022   0.026   0.115   0.116   0.128   0.131
  8 B2   12 E    12 E    10 A1   11 A1    9 B2    6 B1   10 B2                 
  0.137   0.137   0.166   0.168   0.168   0.176   0.185   0.185
 13 E    13 E    11 B2   14 E    14 E    12 A1   15 E    15 E                  
  0.190   0.199   0.215   0.215   0.223   0.225   0.225   0.227
  5 A2    7 B1   16 E    16 E    13 A1   17 E    17 E     6 A2                 
  0.250   0.254   0.254   0.280   0.285   0.294   0.311   0.311
 12 B2   18 E    18 E     8 B1   13 B2    7 A2   19 E    19 E                  
  0.368   0.372   0.414   0.414   0.560   0.648   0.649   0.658
  8 A2   14 A1   20 E    20 E    15 A1   14 B2    9 A2   21 E                  
  0.658   0.673   0.695   0.698   0.698   0.711   0.711   0.745
 21 E     9 B1   16 A1   22 E    22 E    23 E    23 E    24 E                  
  0.745   0.766   0.778   0.810   0.827   0.860   0.861   0.861
 24 E    15 B2   10 B1   10 A2   16 B2   17 A1   25 E    25 E                  
  0.885   0.998   1.005   1.005   1.017   1.026   1.026   1.038
 11 B1   18 A1   26 E    26 E    11 A2   27 E    27 E    17 B2                 
  1.060   1.071   1.074   1.074   1.074   1.087   1.101   1.101
 12 B1   18 B2   19 A1   28 E    28 E    12 A2   29 E    29 E                  
  1.124   1.143   1.168   1.169   1.169   1.251   1.252   1.335
 13 A2   13 B1   20 A1   30 E    30 E    19 B2   14 B1   31 E                  
  1.335   1.347   1.350   1.350   1.373   1.373   1.422   1.490
 31 E    21 A1   32 E    32 E    33 E    33 E    22 A1   20 B2                 
  1.519   1.559   1.645   1.645   1.850   1.850   1.859   1.885
 21 B2   14 A2   34 E    34 E    35 E    35 E    15 B1   15 A2                 
  2.013   2.114   2.114   2.115
 23 A1   36 E    36 E    22 B2                                                 
 
 Beta MOs, Restricted
 -- Occupied --                  
-20.738 -20.738 -20.738 -20.738 -11.437 -11.437 -11.437 -11.437
  1 B2    1 E     1 E     1 A1    0 xxx   1 B1    0 xxx   2 A1                 
-11.436 -11.436 -11.436 -11.436  -2.510  -1.568  -1.550  -1.550
  1 A2    2 E     2 E     2 B2    3 A1    4 A1    3 E     3 E                  
 -1.526  -1.233  -1.178  -1.178  -1.107  -1.017  -0.994  -0.994
  3 B2    2 B1    4 E     4 E     5 A1    2 A2    5 E     5 E                  
 -0.986  -0.866  -0.866  -0.846  -0.836  -0.828  -0.822  -0.799
  4 B2    6 E     6 E     6 A1    3 B1    5 B2    3 A2    7 A1                 
 -0.766  -0.766  -0.761  -0.761  -0.717  -0.717  -0.694  -0.680
  7 E     7 E     8 E     8 E     9 E     9 E     4 A2    6 B2                 
 -0.678  -0.639  -0.637  -0.629  -0.629  -0.610  -0.596  -0.596
  4 B1    5 B1    8 A1   10 E    10 E     7 B2   11 E    11 E                  
 -0.595
  9 A1                                                                         
 -- Virtual --                   
 -0.009   0.022   0.022   0.026   0.115   0.116   0.128   0.131
  8 B2   12 E    12 E    10 A1   11 A1    9 B2    6 B1   10 B2                 
  0.137   0.137   0.166   0.168   0.168   0.176   0.185   0.185
 13 E    13 E    11 B2   14 E    14 E    12 A1   15 E    15 E                  
  0.190   0.199   0.215   0.215   0.223   0.225   0.225   0.227
  5 A2    7 B1   16 E    16 E    13 A1   17 E    17 E     6 A2                 
  0.250   0.254   0.254   0.280   0.285   0.294   0.311   0.311
 12 B2   18 E    18 E     8 B1   13 B2    7 A2   19 E    19 E                  
  0.368   0.372   0.414   0.414   0.560   0.648   0.649   0.658
  8 A2   14 A1   20 E    20 E    15 A1   14 B2    9 A2   21 E                  
  0.658   0.673   0.695   0.698   0.698   0.711   0.711   0.745
 21 E     9 B1   16 A1   22 E    22 E    23 E    23 E    24 E                  
  0.745   0.766   0.778   0.810   0.827   0.860   0.861   0.861
 24 E    15 B2   10 B1   10 A2   16 B2   17 A1   25 E    25 E                  
  0.885   0.998   1.005   1.005   1.017   1.026   1.026   1.038
 11 B1   18 A1   26 E    26 E    11 A2   27 E    27 E    17 B2                 
  1.060   1.071   1.074   1.074   1.074   1.087   1.101   1.101
 12 B1   18 B2   19 A1   28 E    28 E    12 A2   29 E    29 E                  
  1.124   1.143   1.168   1.169   1.169   1.251   1.252   1.335
 13 A2   13 B1   20 A1   30 E    30 E    19 B2   14 B1   31 E                  
  1.335   1.347   1.350   1.350   1.373   1.373   1.422   1.490
 31 E    21 A1   32 E    32 E    33 E    33 E    22 A1   20 B2                 
  1.519   1.559   1.645   1.645   1.850   1.850   1.859   1.885
 21 B2   14 A2   34 E    34 E    35 E    35 E    15 B1   15 A2                 
  2.013   2.114   2.114   2.115
 23 A1   36 E    36 E    22 B2                                                 
 --------------------------------------------------------------
 
          Ground-State Mulliken Net Atomic Charges

     Atom                 Charge (a.u.)
  ----------------------------------------
      1 C                    -0.011007
      2 C                    -0.011007
      3 O                    -0.786078
      4 C                    -0.011007
      5 C                    -0.011007
      6 O                    -0.786078
      7 C                    -0.011007
      8 C                    -0.011007
      9 O                    -0.786078
     10 C                    -0.011007
     11 C                    -0.011007
     12 O                    -0.786078
     13 H                     0.215369
     14 H                     0.222581
     15 H                     0.215369
     16 H                     0.222581
     17 H                     0.215369
     18 H                     0.222581
     19 H                     0.222581
     20 H                     0.215369
     21 H                     0.222581
     22 H                     0.215369
     23 H                     0.215369
     24 H                     0.222581
     25 H                     0.215369
     26 H                     0.222581
     27 H                     0.222581
     28 H                     0.215369
     29 Li                    0.728775
  ----------------------------------------
  Sum of atomic charges =     1.000000

 -----------------------------------------------------------------
                    Cartesian Multipole Moments
 -----------------------------------------------------------------
    Charge (ESU x 10^10)
                 4.8032
    Dipole Moment (Debye)
         X       0.0000      Y       0.0000      Z       0.0000
       Tot       0.0000
    Quadrupole Moments (Debye-Ang)
        XX     -44.9035     XY       0.0000     YY     -44.9035
        XZ       0.0000     YZ       0.0000     ZZ     -76.3656
    Octapole Moments (Debye-Ang^2)
       XXX       0.0000    XXY       0.0000    XYY       0.0000
       YYY       0.0000    XXZ       9.7371    XYZ       0.0000
       YYZ      -9.7371    XZZ       0.0000    YZZ       0.0000
       ZZZ       0.0000
    Hexadecapole Moments (Debye-Ang^3)
      XXXX   -1178.3563   XXXY       0.0000   XXYY    -345.7773
      XYYY       0.0000   YYYY   -1178.3563   XXXZ       0.0000
      XXYZ       0.0000   XYYZ       0.0000   YYYZ       0.0000
      XXZZ    -251.3737   XYZZ       0.0000   YYZZ    -251.3737
      XZZZ       0.0000   YZZZ       0.0000   ZZZZ    -156.2814
 -----------------------------------------------------------------
 Calculating analytic gradient of the SCF energy
 Gradient of Coulomb and Exchange Energy
            1           2           3           4           5           6
    1  -4.2208271  -1.3283079   0.0000000   1.3283079   4.2208271   8.2672224
    2  -1.3283079  -4.2208271  -8.2672224  -4.2208271  -1.3283079   0.0000000
    3   1.6991738  -1.6991738  -7.5542699  -1.6991738   1.6991738   7.5542699
            7           8           9          10          11          12
    1   4.2208271   1.3283079  -0.0000000  -1.3283079  -4.2208271  -8.2672224
    2   1.3283079   4.2208271   8.2672224   4.2208271   1.3283079  -0.0000000
    3   1.6991738  -1.6991738  -7.5542699  -1.6991738   1.6991738   7.5542699
           13          14          15          16          17          18
    1  -1.8302183  -5.0103509  -0.4364394  -2.0410788   0.4364394   2.0410788
    2  -0.4364394  -2.0410788  -1.8302183  -5.0103509  -1.8302183  -5.0103509
    3  -5.4626636   2.1969239   5.4626636  -2.1969239   5.4626636  -2.1969239
           19          20          21          22          23          24
    1   5.0103509   1.8302183   5.0103509   1.8302183   0.4364394   2.0410788
    2  -2.0410788  -0.4364394   2.0410788   0.4364394   1.8302183   5.0103509
    3   2.1969239  -5.4626636   2.1969239  -5.4626636   5.4626636  -2.1969239
           25          26          27          28          29
    1  -0.4364394  -2.0410788  -5.0103509  -1.8302183   0.0000000
    2   1.8302183   5.0103509   2.0410788   0.4364394  -0.0000000
    3   5.4626636  -2.1969239   2.1969239  -5.4626636  -0.0000000
 Gradient of SCF Energy
            1           2           3           4           5           6
    1  -0.0027820  -0.0254673   0.0000000   0.0254673   0.0027820   0.0040918
    2  -0.0254673  -0.0027820  -0.0040918  -0.0027820  -0.0254673  -0.0000000
    3  -0.0006719   0.0006719   0.0209607   0.0006719  -0.0006719  -0.0209607
            7           8           9          10          11          12
    1   0.0027820   0.0254673   0.0000000  -0.0254673  -0.0027820  -0.0040918
    2   0.0254673   0.0027820   0.0040918   0.0027820   0.0254673   0.0000000
    3  -0.0006719   0.0006719   0.0209607   0.0006719  -0.0006719  -0.0209607
           13          14          15          16          17          18
    1  -0.0007749   0.0026705   0.0056646   0.0037258  -0.0056646  -0.0037258
    2   0.0056646   0.0037258  -0.0007749   0.0026705  -0.0007749   0.0026705
    3   0.0054900  -0.0023772  -0.0054900   0.0023772  -0.0054900   0.0023772
           19          20          21          22          23          24
    1  -0.0026705   0.0007749  -0.0026705   0.0007749  -0.0056646  -0.0037258
    2   0.0037258   0.0056646  -0.0037258  -0.0056646   0.0007749  -0.0026705
    3  -0.0023772   0.0054900  -0.0023772   0.0054900  -0.0054900   0.0023772
           25          26          27          28          29
    1   0.0056646   0.0037258   0.0026705  -0.0007749  -0.0000000
    2   0.0007749  -0.0026705  -0.0037258  -0.0056646  -0.0000000
    3  -0.0054900   0.0023772  -0.0023772   0.0054900  -0.0000000
 Max gradient component =       2.547E-02
 RMS gradient           =       9.465E-03
 Gradient time:  CPU 7.02 s  wall 7.05 s
 Geometry Optimization Parameters
   NAtoms,    NIC,     NZ,  NCons,   NDum,   NFix, NCnnct, MaxDiis
       29     822       0       0       0       0       0       0

 Cartesian Hessian Update
 Hessian Updated using BFGS Update


** GEOMETRY OPTIMIZATION IN DELOCALIZED INTERNAL COORDINATES **
   Searching for a Minimum

   Optimization Cycle:   3

                       Coordinates (Angstroms)
     ATOM              X           Y           Z
      1  C         2.278520    1.209795    0.088726
      2  C         1.209795    2.278520   -0.088726
      3  O         0.000000    1.790635    0.518764
      4  C        -1.209795    2.278520   -0.088726
      5  C        -2.278520    1.209795    0.088726
      6  O        -1.790635    0.000000   -0.518764
      7  C        -2.278520   -1.209795    0.088726
      8  C        -1.209795   -2.278520   -0.088726
      9  O         0.000000   -1.790635    0.518764
     10  C         1.209795   -2.278520   -0.088726
     11  C         2.278520   -1.209795    0.088726
     12  O         1.790635    0.000000   -0.518764
     13  H         2.454071    1.078276    1.154427
     14  H         3.195966    1.532077   -0.394889
     15  H         1.078276    2.454071   -1.154427
     16  H         1.532077    3.195966    0.394889
     17  H        -1.078276    2.454071   -1.154427
     18  H        -1.532077    3.195966    0.394889
     19  H        -3.195966    1.532077   -0.394889
     20  H        -2.454071    1.078276    1.154427
     21  H        -3.195966   -1.532077   -0.394889
     22  H        -2.454071   -1.078276    1.154427
     23  H        -1.078276   -2.454071   -1.154427
     24  H        -1.532077   -3.195966    0.394889
     25  H         1.078276   -2.454071   -1.154427
     26  H         1.532077   -3.195966    0.394889
     27  H         3.195966   -1.532077   -0.394889
     28  H         2.454071   -1.078276    1.154427
     29  Li        0.000000    0.000000    0.000000
   Point Group: d2d   Number of degrees of freedom:    11


   Energy is   -618.763504893

 Hessian Updated using BFGS Update

 11 Hessian modes will be used to form the next step
  Hessian Eigenvalues:
     0.004993    0.011506    0.018366    0.022521    0.040114    0.065493
     0.085752    0.147877    0.258843    0.323162    0.369876

 Minimum Search - Taking Simple RFO Step
 Searching for Lamda that Minimizes Along All modes
 Value Taken    Lamda =  -0.01286396
 Calculated Step too Large.  Step scaled by  0.524775
 Step Taken.  Stepsize is  0.300000

                             Maximum     Tolerance    Cnvgd?
         Gradient           0.016262      0.000300      NO
         Displacement       0.195469      0.001200      NO
         Energy change     -0.009910      0.000001      NO


 New Cartesian Coordinates Obtained by Inverse Iteration

 Displacement from previous Coordinates is:  0.143287
 ----------------------------------------------------
       Standard Nuclear Orientation (Angstroms)
    I     Atom         X            Y            Z
 ----------------------------------------------------
    1      C       2.289515     1.222085     0.090514
    2      C       1.222085     2.289515    -0.090514
    3      O       0.000000     1.801988     0.508938
    4      C      -1.222085     2.289515    -0.090514
    5      C      -2.289515     1.222085     0.090514
    6      O      -1.801988     0.000000    -0.508938
    7      C      -2.289515    -1.222085     0.090514
    8      C      -1.222085    -2.289515    -0.090514
    9      O       0.000000    -1.801988     0.508938
   10      C       1.222085    -2.289515    -0.090514
   11      C       2.289515    -1.222085     0.090514
   12      O       1.801988     0.000000    -0.508938
   13      H       2.467902     1.079345     1.150575
   14      H       3.203373     1.540359    -0.394529
   15      H       1.079345     2.467902    -1.150575
   16      H       1.540359     3.203373     0.394529
   17      H      -1.079345     2.467902    -1.150575
   18      H      -1.540359     3.203373     0.394529
   19      H      -3.203373     1.540359    -0.394529
   20      H      -2.467902     1.079345     1.150575
   21      H      -3.203373    -1.540359    -0.394529
   22      H      -2.467902    -1.079345     1.150575
   23      H      -1.079345    -2.467902    -1.150575
   24      H      -1.540359    -3.203373     0.394529
   25      H       1.079345    -2.467902    -1.150575
   26      H       1.540359    -3.203373     0.394529
   27      H       3.203373    -1.540359    -0.394529
   28      H       2.467902    -1.079345     1.150575
   29      Li      0.000000     0.000000     0.000000
 ----------------------------------------------------
 Molecular Point Group                 D2d   NOp =  8
 Largest Abelian Subgroup              D2    NOp =  4
 Nuclear Repulsion Energy =   870.8090476310 hartrees
 There are       49 alpha and       49 beta electrons
 Applying Cartesian multipole field
    Component          Value
    ---------          -----
     (2,0,0)        1.00000E-11
     (0,2,0)        2.00000E-11
     (0,0,2)       -3.00000E-11
 Nucleus-field energy     =     0.0000000292 hartrees
 Requested basis set is 6-31G
 There are 71 shells and 149 basis functions
 A cutoff of  1.0D-11 yielded   2178 shell pairs
 There are     10437 function pairs
 Smallest overlap matrix eigenvalue = 5.83E-03
 Guess MOs from SCF MO coefficient file
Reading MOs from coefficient file
Reading MOs from coefficient file
 A restricted Hartree-Fock SCF calculation will be
 performed using Pulay DIIS extrapolation
 SCF converges when DIIS error is below 1.0E-08
Geometry optimization detected.  Setting ReadMinima to 0
Setting SaveMinima to 0
 ---------------------------------------
  Cycle       Energy         DIIS Error
 ---------------------------------------
    1    -618.8053780658      8.54E-04
    2    -618.7690387871      1.55E-04
    3    -618.7691268192      5.44E-05
    4    -618.7691360311      1.31E-05
    5    -618.7691370335      5.73E-06
    6    -618.7691371475      1.48E-06
    7    -618.7691371620      2.49E-07
    8    -618.7691371642      5.22E-08
    9    -618.7691371634      8.28E-09 Convergence criterion met
 ---------------------------------------
 SCF time:  CPU 13.46 s  wall 13.66 s
 SCF   energy in the final basis set = -618.7691371634
 Total energy in the final basis set = -618.7691371634
 Analysis of SCF Wavefunction
 
 --------------------------------------------------------------
             Orbital Energies (a.u.) and Symmetries
 --------------------------------------------------------------
 Warning : Irrep of orbital(   5) could not be determined
 Warning : Irrep of orbital(   7) could not be determined
 
 Alpha MOs, Restricted
 -- Occupied --                  
-20.735 -20.735 -20.735 -20.735 -11.437 -11.437 -11.437 -11.436
  1 B2    1 E     1 E     1 A1    0 xxx   1 B1    0 xxx   2 A1                 
-11.436 -11.436 -11.436 -11.436  -2.507  -1.561  -1.543  -1.543
  1 A2    2 E     2 E     2 B2    3 A1    4 A1    3 E     3 E                  
 -1.519  -1.232  -1.177  -1.177  -1.107  -1.017  -0.994  -0.994
  3 B2    2 B1    4 E     4 E     5 A1    2 A2    5 E     5 E                  
 -0.985  -0.863  -0.863  -0.841  -0.833  -0.827  -0.819  -0.798
  4 B2    6 E     6 E     6 A1    3 B1    5 B2    3 A2    7 A1                 
 -0.764  -0.764  -0.758  -0.758  -0.717  -0.717  -0.695  -0.677
  7 E     7 E     8 E     8 E     9 E     9 E     4 A2    4 B1                 
 -0.675  -0.644  -0.635  -0.628  -0.628  -0.608  -0.595  -0.595
  6 B2    5 B1    8 A1   10 E    10 E     7 B2   11 E    11 E                  
 -0.594
  9 A1                                                                         
 -- Virtual --                   
 -0.008   0.023   0.023   0.025   0.113   0.117   0.129   0.129
  8 B2   12 E    12 E    10 A1   11 A1    9 B2   10 B2    6 B1                 
  0.134   0.134   0.165   0.169   0.169   0.176   0.186   0.186
 13 E    13 E    11 B2   14 E    14 E    12 A1   15 E    15 E                  
  0.191   0.202   0.217   0.217   0.222   0.227   0.227   0.229
  5 A2    7 B1   16 E    16 E    13 A1   17 E    17 E     6 A2                 
  0.252   0.253   0.253   0.277   0.283   0.291   0.310   0.310
 12 B2   18 E    18 E     8 B1   13 B2    7 A2   19 E    19 E                  
  0.367   0.371   0.412   0.412   0.554   0.644   0.647   0.653
  8 A2   14 A1   20 E    20 E    15 A1   14 B2    9 A2   21 E                  
  0.653   0.672   0.695   0.695   0.698   0.711   0.711   0.743
 21 E     9 B1   22 E    22 E    16 A1   23 E    23 E    24 E                  
  0.743   0.764   0.780   0.805   0.821   0.860   0.862   0.862
 24 E    15 B2   10 B1   10 A2   16 B2   17 A1   25 E    25 E                  
  0.880   1.002   1.008   1.008   1.019   1.025   1.025   1.042
 11 B1   18 A1   26 E    26 E    11 A2   27 E    27 E    17 B2                 
  1.063   1.074   1.078   1.078   1.078   1.090   1.103   1.103
 12 B1   18 B2   19 A1   28 E    28 E    12 A2   29 E    29 E                  
  1.129   1.146   1.164   1.171   1.171   1.248   1.251   1.335
 13 A2   13 B1   20 A1   30 E    30 E    19 B2   14 B1   31 E                  
  1.335   1.347   1.347   1.352   1.374   1.374   1.420   1.487
 31 E    32 E    32 E    21 A1   33 E    33 E    22 A1   20 B2                 
  1.517   1.561   1.650   1.650   1.841   1.841   1.851   1.872
 21 B2   14 A2   34 E    34 E    35 E    35 E    15 B1   15 A2                 
  2.009   2.113   2.113   2.123
 23 A1   36 E    36 E    22 B2                                                 
 
 Beta MOs, Restricted
 -- Occupied --                  
-20.735 -20.735 -20.735 -20.735 -11.437 -11.437 -11.437 -11.436
  1 B2    1 E     1 E     1 A1    0 xxx   1 B1    0 xxx   2 A1                 
-11.436 -11.436 -11.436 -11.436  -2.507  -1.561  -1.543  -1.543
  1 A2    2 E     2 E     2 B2    3 A1    4 A1    3 E     3 E                  
 -1.519  -1.232  -1.177  -1.177  -1.107  -1.017  -0.994  -0.994
  3 B2    2 B1    4 E     4 E     5 A1    2 A2    5 E     5 E                  
 -0.985  -0.863  -0.863  -0.841  -0.833  -0.827  -0.819  -0.798
  4 B2    6 E     6 E     6 A1    3 B1    5 B2    3 A2    7 A1                 
 -0.764  -0.764  -0.758  -0.758  -0.717  -0.717  -0.695  -0.677
  7 E     7 E     8 E     8 E     9 E     9 E     4 A2    4 B1                 
 -0.675  -0.644  -0.635  -0.628  -0.628  -0.608  -0.595  -0.595
  6 B2    5 B1    8 A1   10 E    10 E     7 B2   11 E    11 E                  
 -0.594
  9 A1                                                                         
 -- Virtual --                   
 -0.008   0.023   0.023   0.025   0.113   0.117   0.129   0.129
  8 B2   12 E    12 E    10 A1   11 A1    9 B2   10 B2    6 B1                 
  0.134   0.134   0.165   0.169   0.169   0.176   0.186   0.186
 13 E    13 E    11 B2   14 E    14 E    12 A1   15 E    15 E                  
  0.191   0.202   0.217   0.217   0.222   0.227   0.227   0.229
  5 A2    7 B1   16 E    16 E    13 A1   17 E    17 E     6 A2                 
  0.252   0.253   0.253   0.277   0.283   0.291   0.310   0.310
 12 B2   18 E    18 E     8 B1   13 B2    7 A2   19 E    19 E                  
  0.367   0.371   0.412   0.412   0.554   0.644   0.647   0.653
  8 A2   14 A1   20 E    20 E    15 A1   14 B2    9 A2   21 E                  
  0.653   0.672   0.695   0.695   0.698   0.711   0.711   0.743
 21 E     9 B1   22 E    22 E    16 A1   23 E    23 E    24 E                  
  0.743   0.764   0.780   0.805   0.821   0.860   0.862   0.862
 24 E    15 B2   10 B1   10 A2   16 B2   17 A1   25 E    25 E                  
  0.880   1.002   1.008   1.008   1.019   1.025   1.025   1.042
 11 B1   18 A1   26 E    26 E    11 A2   27 E    27 E    17 B2                 
  1.063   1.074   1.078   1.078   1.078   1.090   1.103   1.103
 12 B1   18 B2   19 A1   28 E    28 E    12 A2   29 E    29 E                  
  1.129   1.146   1.164   1.171   1.171   1.248   1.251   1.335
 13 A2   13 B1   20 A1   30 E    30 E    19 B2   14 B1   31 E                  
  1.335   1.347   1.347   1.352   1.374   1.374   1.420   1.487
 31 E    32 E    32 E    21 A1   33 E    33 E    22 A1   20 B2                 
  1.517   1.561   1.650   1.650   1.841   1.841   1.851   1.872
 21 B2   14 A2   34 E    34 E    35 E    35 E    15 B1   15 A2                 
  2.009   2.113   2.113   2.123
 23 A1   36 E    36 E    22 B2                                                 
 --------------------------------------------------------------
 
          Ground-State Mulliken Net Atomic Charges

     Atom                 Charge (a.u.)
  ----------------------------------------
      1 C                    -0.006671
      2 C                    -0.006671
      3 O                    -0.790703
      4 C                    -0.006671
      5 C                    -0.006671
      6 O                    -0.790703
      7 C                    -0.006671
      8 C                    -0.006671
      9 O                    -0.790703
     10 C                    -0.006671
     11 C                    -0.006671
     12 O                    -0.790703
     13 H                     0.213982
     14 H                     0.222125
     15 H                     0.213982
     16 H                     0.222125
     17 H                     0.213982
     18 H                     0.222125
     19 H                     0.222125
     20 H                     0.213982
     21 H                     0.222125
     22 H                     0.213982
     23 H                     0.213982
     24 H                     0.222125
     25 H                     0.213982
     26 H                     0.222125
     27 H                     0.222125
     28 H                     0.213982
     29 Li                    0.727324
  ----------------------------------------
  Sum of atomic charges =     1.000000

 -----------------------------------------------------------------
                    Cartesian Multipole Moments
 -----------------------------------------------------------------
    Charge (ESU x 10^10)
                 4.8032
    Dipole Moment (Debye)
         X       0.0000      Y       0.0000      Z       0.0000
       Tot       0.0000
    Quadrupole Moments (Debye-Ang)
        XX     -44.3489     XY       0.0000     YY     -44.3489
        XZ       0.0000     YZ       0.0000     ZZ     -76.3103
    Octapole Moments (Debye-Ang^2)
       XXX       0.0000    XXY       0.0000    XYY       0.0000
       YYY       0.0000    XXZ      10.0127    XYZ       0.0000
       YYZ     -10.0127    XZZ       0.0000    YZZ       0.0000
       ZZZ       0.0000
    Hexadecapole Moments (Debye-Ang^3)
      XXXX   -1185.7854   XXXY       0.0000   XXYY    -346.9331
      XYYY       0.0000   YYYY   -1185.7854   XXXZ       0.0000
      XXYZ       0.0000   XYYZ       0.0000   YYYZ       0.0000
      XXZZ    -253.4558   XYZZ       0.0000   YYZZ    -253.4558
      XZZZ       0.0000   YZZZ       0.0000   ZZZZ    -154.7356
 -----------------------------------------------------------------
 Calculating analytic gradient of the SCF energy
 Gradient of Coulomb and Exchange Energy
            1           2           3           4           5           6
    1  -4.2176439  -1.5455205  -0.0000000   1.5455205   4.2176439   8.3166295
    2  -1.5455205  -4.2176439  -8.3166295  -4.2176439  -1.5455205  -0.0000000
    3   1.6933570  -1.6933570  -7.1890189  -1.6933570   1.6933570   7.1890189
            7           8           9          10          11          12
    1   4.2176439   1.5455205  -0.0000000  -1.5455205  -4.2176439  -8.3166295
    2   1.5455205   4.2176439   8.3166295   4.2176439   1.5455205   0.0000000
    3   1.6933570  -1.6933570  -7.1890189  -1.6933570   1.6933570   7.1890189
           13          14          15          16          17          18
    1  -1.8479170  -5.0006748  -0.2895907  -2.0124600   0.2895907   2.0124600
    2  -0.2895907  -2.0124600  -1.8479170  -5.0006748  -1.8479170  -5.0006748
    3  -5.4392719   2.1981058   5.4392719  -2.1981058   5.4392719  -2.1981058
           19          20          21          22          23          24
    1   5.0006748   1.8479170   5.0006748   1.8479170   0.2895907   2.0124600
    2  -2.0124600  -0.2895907   2.0124600   0.2895907   1.8479170   5.0006748
    3   2.1981058  -5.4392719   2.1981058  -5.4392719   5.4392719  -2.1981058
           25          26          27          28          29
    1  -0.2895907  -2.0124600  -5.0006748  -1.8479170   0.0000000
    2   1.8479170   5.0006748   2.0124600   0.2895907   0.0000000
    3   5.4392719  -2.1981058   2.1981058  -5.4392719  -0.0000000
 Gradient of SCF Energy
            1           2           3           4           5           6
    1   0.0002359  -0.0164624   0.0000000   0.0164624  -0.0002359   0.0033283
    2  -0.0164624   0.0002359  -0.0033283   0.0002359  -0.0164624   0.0000000
    3   0.0005621  -0.0005621   0.0184607  -0.0005621   0.0005621  -0.0184607
            7           8           9          10          11          12
    1  -0.0002359   0.0164624  -0.0000000  -0.0164624   0.0002359  -0.0033283
    2   0.0164624  -0.0002359   0.0033283  -0.0002359   0.0164624  -0.0000000
    3   0.0005621  -0.0005621   0.0184607  -0.0005621   0.0005621  -0.0184607
           13          14          15          16          17          18
    1  -0.0009887   0.0007017   0.0035418   0.0030098  -0.0035418  -0.0030098
    2   0.0035418   0.0030098  -0.0009887   0.0007017  -0.0009887   0.0007017
    3   0.0026844  -0.0011018  -0.0026844   0.0011018  -0.0026844   0.0011018
           19          20          21          22          23          24
    1  -0.0007017   0.0009887  -0.0007017   0.0009887  -0.0035418  -0.0030098
    2   0.0030098   0.0035418  -0.0030098  -0.0035418   0.0009887  -0.0007017
    3  -0.0011018   0.0026844  -0.0011018   0.0026844  -0.0026844   0.0011018
           25          26          27          28          29
    1   0.0035418   0.0030098   0.0007017  -0.0009887   0.0000000
    2   0.0009887  -0.0007017  -0.0030098  -0.0035418  -0.0000000
    3  -0.0026844   0.0011018  -0.0011018   0.0026844   0.0000000
 Max gradient component =       1.846E-02
 RMS gradient           =       6.635E-03
 Gradient time:  CPU 7.02 s  wall 7.05 s
 Geometry Optimization Parameters
   NAtoms,    NIC,     NZ,  NCons,   NDum,   NFix, NCnnct, MaxDiis
       29     822       0       0       0       0       0       0

 Cartesian Hessian Update
 Hessian Updated using BFGS Update


** GEOMETRY OPTIMIZATION IN DELOCALIZED INTERNAL COORDINATES **
   Searching for a Minimum

   Optimization Cycle:   4

                       Coordinates (Angstroms)
     ATOM              X           Y           Z
      1  C         2.289515    1.222085    0.090514
      2  C         1.222085    2.289515   -0.090514
      3  O         0.000000    1.801988    0.508938
      4  C        -1.222085    2.289515   -0.090514
      5  C        -2.289515    1.222085    0.090514
      6  O        -1.801988    0.000000   -0.508938
      7  C        -2.289515   -1.222085    0.090514
      8  C        -1.222085   -2.289515   -0.090514
      9  O         0.000000   -1.801988    0.508938
     10  C         1.222085   -2.289515   -0.090514
     11  C         2.289515   -1.222085    0.090514
     12  O         1.801988    0.000000   -0.508938
     13  H         2.467902    1.079345    1.150575
     14  H         3.203373    1.540359   -0.394529
     15  H         1.079345    2.467902   -1.150575
     16  H         1.540359    3.203373    0.394529
     17  H        -1.079345    2.467902   -1.150575
     18  H        -1.540359    3.203373    0.394529
     19  H        -3.203373    1.540359   -0.394529
     20  H        -2.467902    1.079345    1.150575
     21  H        -3.203373   -1.540359   -0.394529
     22  H        -2.467902   -1.079345    1.150575
     23  H        -1.079345   -2.467902   -1.150575
     24  H        -1.540359   -3.203373    0.394529
     25  H         1.079345   -2.467902   -1.150575
     26  H         1.540359   -3.203373    0.394529
     27  H         3.203373   -1.540359   -0.394529
     28  H         2.467902   -1.079345    1.150575
     29  Li        0.000000    0.000000    0.000000
   Point Group: d2d   Number of degrees of freedom:    11


   Energy is   -618.769137163

 Hessian Updated using BFGS Update

 11 Hessian modes will be used to form the next step
  Hessian Eigenvalues:
     0.004928    0.011314    0.016009    0.022865    0.040852    0.065493
     0.087453    0.149992    0.260011    0.323171    0.380290

 Minimum Search - Taking Simple RFO Step
 Searching for Lamda that Minimizes Along All modes
 Value Taken    Lamda =  -0.00783263
 Calculated Step too Large.  Step scaled by  0.523574
 Step Taken.  Stepsize is  0.300000

                             Maximum     Tolerance    Cnvgd?
         Gradient           0.008332      0.000300      NO
         Displacement       0.210401      0.001200      NO
         Energy change     -0.005632      0.000001      NO


 New Cartesian Coordinates Obtained by Inverse Iteration

 Displacement from previous Coordinates is:  0.122197
 ----------------------------------------------------
       Standard Nuclear Orientation (Angstroms)
    I     Atom         X            Y            Z
 ----------------------------------------------------
    1      C       2.298038     1.231923     0.092962
    2      C       1.231923     2.298038    -0.092962
    3      O       0.000000     1.810661     0.496541
    4      C      -1.231923     2.298038    -0.092962
    5      C      -2.298038     1.231923     0.092962
    6      O      -1.810661     0.000000    -0.496541
    7      C      -2.298038    -1.231923     0.092962
    8      C      -1.231923    -2.298038    -0.092962
    9      O       0.000000    -1.810661     0.496541
   10      C       1.231923    -2.298038    -0.092962
   11      C       2.298038    -1.231923     0.092962
   12      O       1.810661     0.000000    -0.496541
   13      H       2.480356     1.082681     1.149736
   14      H       3.210079     1.544897    -0.395048
   15      H       1.082681     2.480356    -1.149736
   16      H       1.544897     3.210079     0.395048
   17      H      -1.082681     2.480356    -1.149736
   18      H      -1.544897     3.210079     0.395048
   19      H      -3.210079     1.544897    -0.395048
   20      H      -2.480356     1.082681     1.149736
   21      H      -3.210079    -1.544897    -0.395048
   22      H      -2.480356    -1.082681     1.149736
   23      H      -1.082681    -2.480356    -1.149736
   24      H      -1.544897    -3.210079     0.395048
   25      H       1.082681    -2.480356    -1.149736
   26      H       1.544897    -3.210079     0.395048
   27      H       3.210079    -1.544897    -0.395048
   28      H       2.480356    -1.082681     1.149736
   29      Li      0.000000     0.000000     0.000000
 ----------------------------------------------------
 Molecular Point Group                 D2d   NOp =  8
 Largest Abelian Subgroup              D2    NOp =  4
 Nuclear Repulsion Energy =   868.3876726954 hartrees
 There are       49 alpha and       49 beta electrons
 Applying Cartesian multipole field
    Component          Value
    ---------          -----
     (2,0,0)        1.00000E-11
     (0,2,0)        2.00000E-11
     (0,0,2)       -3.00000E-11
 Nucleus-field energy     =     0.0000000295 hartrees
 Requested basis set is 6-31G
 There are 71 shells and 149 basis functions
 A cutoff of  1.0D-11 yielded   2178 shell pairs
 There are     10437 function pairs
 Smallest overlap matrix eigenvalue = 5.85E-03
 Guess MOs from SCF MO coefficient file
Reading MOs from coefficient file
Reading MOs from coefficient file
 A restricted Hartree-Fock SCF calculation will be
 performed using Pulay DIIS extrapolation
 SCF converges when DIIS error is below 1.0E-08
Geometry optimization detected.  Setting ReadMinima to 0
Setting SaveMinima to 0
 ---------------------------------------
  Cycle       Energy         DIIS Error
[...]
     20 H                     0.211098
     21 H                     0.213944
     22 H                     0.211098
     23 H                     0.211098
     24 H                     0.213944
     25 H                     0.211098
     26 H                     0.213944
     27 H                     0.213944
     28 H                     0.211098
     29 Li                    0.737652
  ----------------------------------------
  Sum of atomic charges =     1.000000

 -----------------------------------------------------------------
                    Cartesian Multipole Moments
 -----------------------------------------------------------------
    Charge (ESU x 10^10)
                 4.8032
    Dipole Moment (Debye)
         X       0.0000      Y       0.0000      Z       0.0000
       Tot       0.0000
    Quadrupole Moments (Debye-Ang)
        XX     -43.6465     XY       0.0000     YY     -43.6465
        XZ       0.0000     YZ       0.0000     ZZ     -73.4639
    Octapole Moments (Debye-Ang^2)
       XXX       0.0000    XXY       0.0000    XYY       0.0000
       YYY       0.0000    XXZ       9.9870    XYZ       0.0000
       YYZ      -9.9870    XZZ       0.0000    YZZ       0.0000
       ZZZ       0.0000
    Hexadecapole Moments (Debye-Ang^3)
      XXXX   -1207.7632   XXXY       0.0000   XXYY    -357.7416
      XYYY       0.0000   YYYY   -1207.7632   XXXZ       0.0000
      XXYZ       0.0000   XYYZ       0.0000   YYYZ       0.0000
      XXZZ    -256.1423   XYZZ       0.0000   YYZZ    -256.1423
      XZZZ       0.0000   YZZZ       0.0000   ZZZZ    -140.4930
 -----------------------------------------------------------------
 Calculating analytic gradient of the SCF energy
 Gradient of Coulomb and Exchange Energy
            1           2           3           4           5           6
    1  -4.4507209  -1.9815880  -0.0000000   1.9815880   4.4507209   8.6935689
    2  -1.9815880  -4.4507209  -8.6935689  -4.4507209  -1.9815880  -0.0000000
    3   1.1224805  -1.1224805  -4.4311832  -1.1224805   1.1224805   4.4311832
            7           8           9          10          11          12
    1   4.4507209   1.9815880   0.0000000  -1.9815880  -4.4507209  -8.6935689
    2   1.9815880   4.4507209   8.6935689   4.4507209   1.9815880   0.0000000
    3   1.1224805  -1.1224805  -4.4311832  -1.1224805   1.1224805   4.4311832
           13          14          15          16          17          18
    1  -1.4842425  -5.1995956  -0.5544304  -1.5212775   0.5544304   1.5212775
    2  -0.5544304  -1.5212775  -1.4842425  -5.1995956  -1.4842425  -5.1995956
    3  -5.5227976   1.8506827   5.5227976  -1.8506827   5.5227976  -1.8506827
           19          20          21          22          23          24
    1   5.1995956   1.4842425   5.1995956   1.4842425   0.5544304   1.5212775
    2  -1.5212775  -0.5544304   1.5212775   0.5544304   1.4842425   5.1995956
    3   1.8506827  -5.5227976   1.8506827  -5.5227976   5.5227976  -1.8506827
           25          26          27          28          29
    1  -0.5544304  -1.5212775  -5.1995956  -1.4842425   0.0000000
    2   1.4842425   5.1995956   1.5212775   0.5544304   0.0000000
    3   5.5227976  -1.8506827   1.8506827  -5.5227976  -0.0000000
 Gradient of SCF Energy
            1           2           3           4           5           6
    1  -0.0000095   0.0000243   0.0000000  -0.0000243   0.0000095  -0.0000008
    2   0.0000243  -0.0000095   0.0000008  -0.0000095   0.0000243  -0.0000000
    3  -0.0000077   0.0000077   0.0000032   0.0000077  -0.0000077  -0.0000032
            7           8           9          10          11          12
    1   0.0000095  -0.0000243   0.0000000   0.0000243  -0.0000095   0.0000008
    2  -0.0000243   0.0000095  -0.0000008   0.0000095  -0.0000243  -0.0000000
    3  -0.0000077   0.0000077   0.0000032   0.0000077  -0.0000077  -0.0000032
           13          14          15          16          17          18
    1   0.0000008   0.0000022  -0.0000034  -0.0000054   0.0000034   0.0000054
    2  -0.0000034  -0.0000054   0.0000008   0.0000022   0.0000008   0.0000022
    3  -0.0000003   0.0000051   0.0000003  -0.0000051   0.0000003  -0.0000051
           19          20          21          22          23          24
    1  -0.0000022  -0.0000008  -0.0000022  -0.0000008   0.0000034   0.0000054
    2  -0.0000054  -0.0000034   0.0000054   0.0000034  -0.0000008  -0.0000022
    3   0.0000051  -0.0000003   0.0000051  -0.0000003   0.0000003  -0.0000051
           25          26          27          28          29
    1  -0.0000034  -0.0000054   0.0000022   0.0000008   0.0000000
    2  -0.0000008  -0.0000022   0.0000054   0.0000034   0.0000000
    3   0.0000003  -0.0000051   0.0000051  -0.0000003  -0.0000000
 Max gradient component =       2.430E-05
 RMS gradient           =       8.669E-06
 Gradient time:  CPU 6.83 s  wall 6.86 s
 Geometry Optimization Parameters
   NAtoms,    NIC,     NZ,  NCons,   NDum,   NFix, NCnnct, MaxDiis
       29     822       0       0       0       0       0       0

 Cartesian Hessian Update
 Hessian Updated using BFGS Update


** GEOMETRY OPTIMIZATION IN DELOCALIZED INTERNAL COORDINATES **
   Searching for a Minimum

   Optimization Cycle:  26

                       Coordinates (Angstroms)
     ATOM              X           Y           Z
      1  C         2.308272    1.270146    0.201316
      2  C         1.270146    2.308272   -0.201316
      3  O         0.000000    1.825670    0.295110
      4  C        -1.270146    2.308272   -0.201316
      5  C        -2.308272    1.270146    0.201316
      6  O        -1.825670    0.000000   -0.295110
      7  C        -2.308272   -1.270146    0.201316
      8  C        -1.270146   -2.308272   -0.201316
      9  O         0.000000   -1.825670    0.295110
     10  C         1.270146   -2.308272   -0.201316
     11  C         2.308272   -1.270146    0.201316
     12  O         1.825670    0.000000   -0.295110
     13  H         2.401580    1.221132    1.278716
     14  H         3.268701    1.499389   -0.236630
     15  H         1.221132    2.401580   -1.278716
     16  H         1.499389    3.268701    0.236630
     17  H        -1.221132    2.401580   -1.278716
     18  H        -1.499389    3.268701    0.236630
     19  H        -3.268701    1.499389   -0.236630
     20  H        -2.401580    1.221132    1.278716
     21  H        -3.268701   -1.499389   -0.236630
     22  H        -2.401580   -1.221132    1.278716
     23  H        -1.221132   -2.401580   -1.278716
     24  H        -1.499389   -3.268701    0.236630
     25  H         1.221132   -2.401580   -1.278716
     26  H         1.499389   -3.268701    0.236630
     27  H         3.268701   -1.499389   -0.236630
     28  H         2.401580   -1.221132    1.278716
     29  Li        0.000000    0.000000    0.000000
   Point Group: d2d   Number of degrees of freedom:    11


   Energy is   -618.783781687

 Hessian Updated using BFGS Update

 11 Hessian modes will be used to form the next step
  Hessian Eigenvalues:
     0.000564    0.002385    0.009428    0.025316    0.043107    0.065017
     0.089952    0.155273    0.266590    0.323160    0.395269

 Minimum Search - Taking Simple RFO Step
 Searching for Lamda that Minimizes Along All modes
 Value Taken    Lamda =   0.00000000
 Step Taken.  Stepsize is  0.004429

                             Maximum     Tolerance    Cnvgd?
         Gradient           0.000018      0.000300     YES
         Displacement       0.002619      0.001200      NO
         Energy change      0.000000      0.000001     YES

 Final energy is   -618.783781686603     


 ******************************
 **  OPTIMIZATION CONVERGED  **
 ******************************

Z-matrix Print:
$molecule
1,1
1 O 
2 C  1 1.446587
3 H  2 1.080172 1 110.110948
4 H  2 1.082544 1 109.301641 3 -120.525012 0
5 C  1 1.446587 2 122.811092 3 78.490769 0
6 H  5 1.080172 1 110.110948 2 -78.490769 0
7 H  5 1.082544 1 109.301641 2 42.034242 0
8 C  2 1.522342 1 106.289407 3 120.011165 0
9 H  8 1.080172 2 110.755179 1 173.190383 0
10 H  8 1.082544 2 110.663432 1 -64.972835 0
11 O  8 1.446587 2 106.289407 1 53.598275 0
12 C  11 1.446587 8 122.811092 2 -161.498066 0
13 H  12 1.080172 11 110.110948 8 -78.490769 0
14 H  12 1.082544 11 109.301641 8 42.034242 0
15 C  12 1.522342 11 106.289407 8 161.498066 0
16 H  15 1.080172 12 110.755179 11 -173.190383 0
17 H  15 1.082544 12 110.663432 11 64.972835 0
18 O  15 1.446587 12 106.289407 11 -53.598275 0
19 C  18 1.446587 15 122.811092 12 161.498066 0
20 H  19 1.080172 18 110.110948 15 78.490769 0
21 H  19 1.082544 18 109.301641 15 -42.034242 0
22 C  19 1.522342 18 106.289407 15 -161.498066 0
23 H  22 1.080172 19 110.755179 18 173.190383 0
24 H  22 1.082544 19 110.663432 18 -64.972835 0
25 O  22 1.446587 19 106.289407 18 53.598275 0
26 C  25 1.446587 22 122.811092 19 -161.498066 0
27 H  26 1.080172 25 110.110948 22 -78.490769 0
28 H  26 1.082544 25 109.301641 22 42.034242 0
29 Li 25 1.849368 22 105.936890 19 -39.906320 0
$end

 Analysis of SCF Wavefunction
 
 --------------------------------------------------------------
             Orbital Energies (a.u.) and Symmetries
 --------------------------------------------------------------
 
 Alpha MOs, Restricted
 -- Occupied --                  
-20.721 -20.721 -20.721 -20.721 -11.434 -11.434 -11.434 -11.434
  1 B2    1 E     1 E     1 A1    1 B1    2 E     2 E     2 A1                 
-11.433 -11.433 -11.433 -11.433  -2.479  -1.548  -1.529  -1.529
  1 A2    3 E     3 E     2 B2    3 A1    4 A1    4 E     4 E                  
 -1.502  -1.230  -1.172  -1.172  -1.096  -1.021  -0.989  -0.989
  3 B2    2 B1    5 E     5 E     5 A1    2 A2    6 E     6 E                  
 -0.970  -0.854  -0.854  -0.835  -0.830  -0.827  -0.808  -0.783
  4 B2    7 E     7 E     3 B1    6 A1    5 B2    3 A2    7 A1                 
 -0.766  -0.766  -0.746  -0.746  -0.713  -0.713  -0.702  -0.671
  8 E     8 E     9 E     9 E    10 E    10 E     4 A2    4 B1                 
 -0.657  -0.652  -0.624  -0.618  -0.618  -0.589  -0.588  -0.588
  6 B2    5 B1    8 A1   11 E    11 E     7 B2   12 E    12 E                  
 -0.585
  9 A1                                                                         
 -- Virtual --                   
 -0.011   0.024   0.026   0.026   0.106   0.128   0.134   0.135
  8 B2   10 A1   13 E    13 E    11 A1    9 B2    6 B1   14 E                  
  0.135   0.137   0.170   0.175   0.175   0.177   0.187   0.187
 14 E    10 B2   11 B2   15 E    15 E    12 A1   16 E    16 E                  
  0.190   0.217   0.217   0.217   0.222   0.237   0.243   0.243
  5 A2    7 B1   17 E    17 E     6 A2   13 A1   18 E    18 E                  
  0.255   0.255   0.262   0.272   0.276   0.280   0.307   0.307
 19 E    19 E    12 B2    8 B1   13 B2    7 A2   20 E    20 E                  
  0.359   0.391   0.440   0.440   0.536   0.633   0.633   0.635
  8 A2   14 A1   21 E    21 E    15 A1   22 E    22 E    14 B2                 
  0.663   0.672   0.692   0.694   0.694   0.711   0.711   0.745
  9 A2    9 B1   16 A1   23 E    23 E    24 E    24 E    25 E                  
  0.745   0.757   0.784   0.796   0.810   0.856   0.859   0.859
 25 E    15 B2   10 B1   10 A2   16 B2   17 A1   26 E    26 E                  
  0.903   1.006   1.006   1.006   1.019   1.021   1.021   1.041
 11 B1   27 E    27 E    18 A1   11 A2   28 E    28 E    17 B2                 
  1.080   1.084   1.087   1.088   1.088   1.091   1.097   1.097
 18 B2   12 B1   12 A2   29 E    29 E    19 A1   30 E    30 E                  
  1.122   1.142   1.163   1.186   1.186   1.261   1.284   1.325
 13 A2   13 B1   20 A1   31 E    31 E    14 B1   19 B2   32 E                  
  1.325   1.344   1.344   1.347   1.364   1.405   1.405   1.481
 32 E    33 E    33 E    21 A1   22 A1   34 E    34 E    20 B2                 
  1.528   1.551   1.694   1.694   1.831   1.833   1.833   1.909
 21 B2   14 A2   35 E    35 E    15 B1   36 E    36 E    15 A2                 
  2.005   2.130   2.130   2.176
 23 A1   37 E    37 E    22 B2                                                 
 
 Beta MOs, Restricted
 -- Occupied --                  
-20.721 -20.721 -20.721 -20.721 -11.434 -11.434 -11.434 -11.434
  1 B2    1 E     1 E     1 A1    1 B1    2 E     2 E     2 A1                 
-11.433 -11.433 -11.433 -11.433  -2.479  -1.548  -1.529  -1.529
  1 A2    3 E     3 E     2 B2    3 A1    4 A1    4 E     4 E                  
 -1.502  -1.230  -1.172  -1.172  -1.096  -1.021  -0.989  -0.989
  3 B2    2 B1    5 E     5 E     5 A1    2 A2    6 E     6 E                  
 -0.970  -0.854  -0.854  -0.835  -0.830  -0.827  -0.808  -0.783
  4 B2    7 E     7 E     3 B1    6 A1    5 B2    3 A2    7 A1                 
 -0.766  -0.766  -0.746  -0.746  -0.713  -0.713  -0.702  -0.671
  8 E     8 E     9 E     9 E    10 E    10 E     4 A2    4 B1                 
 -0.657  -0.652  -0.624  -0.618  -0.618  -0.589  -0.588  -0.588
  6 B2    5 B1    8 A1   11 E    11 E     7 B2   12 E    12 E                  
 -0.585
  9 A1                                                                         
 -- Virtual --                   
 -0.011   0.024   0.026   0.026   0.106   0.128   0.134   0.135
  8 B2   10 A1   13 E    13 E    11 A1    9 B2    6 B1   14 E                  
  0.135   0.137   0.170   0.175   0.175   0.177   0.187   0.187
 14 E    10 B2   11 B2   15 E    15 E    12 A1   16 E    16 E                  
  0.190   0.217   0.217   0.217   0.222   0.237   0.243   0.243
  5 A2    7 B1   17 E    17 E     6 A2   13 A1   18 E    18 E                  
  0.255   0.255   0.262   0.272   0.276   0.280   0.307   0.307
 19 E    19 E    12 B2    8 B1   13 B2    7 A2   20 E    20 E                  
  0.359   0.391   0.440   0.440   0.536   0.633   0.633   0.635
  8 A2   14 A1   21 E    21 E    15 A1   22 E    22 E    14 B2                 
  0.663   0.672   0.692   0.694   0.694   0.711   0.711   0.745
  9 A2    9 B1   16 A1   23 E    23 E    24 E    24 E    25 E                  
  0.745   0.757   0.784   0.796   0.810   0.856   0.859   0.859
 25 E    15 B2   10 B1   10 A2   16 B2   17 A1   26 E    26 E                  
  0.903   1.006   1.006   1.006   1.019   1.021   1.021   1.041
 11 B1   27 E    27 E    18 A1   11 A2   28 E    28 E    17 B2                 
  1.080   1.084   1.087   1.088   1.088   1.091   1.097   1.097
 18 B2   12 B1   12 A2   29 E    29 E    19 A1   30 E    30 E                  
  1.122   1.142   1.163   1.186   1.186   1.261   1.284   1.325
 13 A2   13 B1   20 A1   31 E    31 E    14 B1   19 B2   32 E                  
  1.325   1.344   1.344   1.347   1.364   1.405   1.405   1.481
 32 E    33 E    33 E    21 A1   22 A1   34 E    34 E    20 B2                 
  1.528   1.551   1.694   1.694   1.831   1.833   1.833   1.909
 21 B2   14 A2   35 E    35 E    15 B1   36 E    36 E    15 A2                 
  2.005   2.130   2.130   2.176
 23 A1   37 E    37 E    22 B2                                                 
 --------------------------------------------------------------
 
          Ground-State Mulliken Net Atomic Charges

     Atom                 Charge (a.u.)
  ----------------------------------------
      1 C                     0.020489
      2 C                     0.020489
      3 O                    -0.825476
      4 C                     0.020489
      5 C                     0.020489
      6 O                    -0.825476
      7 C                     0.020489
      8 C                     0.020489
      9 O                    -0.825476
     10 C                     0.020489
     11 C                     0.020489
     12 O                    -0.825476
     13 H                     0.211098
     14 H                     0.213944
     15 H                     0.211098
     16 H                     0.213944
     17 H                     0.211098
     18 H                     0.213944
     19 H                     0.213944
     20 H                     0.211098
     21 H                     0.213944
     22 H                     0.211098
     23 H                     0.211098
     24 H                     0.213944
     25 H                     0.211098
     26 H                     0.213944
     27 H                     0.213944
     28 H                     0.211098
     29 Li                    0.737652
  ----------------------------------------
  Sum of atomic charges =     1.000000

 -----------------------------------------------------------------
                    Cartesian Multipole Moments
 -----------------------------------------------------------------
    Charge (ESU x 10^10)
                 4.8032
    Dipole Moment (Debye)
         X       0.0000      Y       0.0000      Z       0.0000
       Tot       0.0000
    Quadrupole Moments (Debye-Ang)
        XX     -43.6465     XY       0.0000     YY     -43.6465
        XZ       0.0000     YZ       0.0000     ZZ     -73.4639
    Octapole Moments (Debye-Ang^2)
       XXX       0.0000    XXY       0.0000    XYY       0.0000
       YYY       0.0000    XXZ       9.9870    XYZ       0.0000
       YYZ      -9.9870    XZZ       0.0000    YZZ       0.0000
       ZZZ       0.0000
    Hexadecapole Moments (Debye-Ang^3)
      XXXX   -1207.7632   XXXY       0.0000   XXYY    -357.7416
      XYYY       0.0000   YYYY   -1207.7632   XXXZ       0.0000
      XXYZ       0.0000   XYYZ       0.0000   YYYZ       0.0000
      XXZZ    -256.1423   XYZZ       0.0000   YYZZ    -256.1423
      XZZZ       0.0000   YZZZ       0.0000   ZZZZ    -140.4930
 -----------------------------------------------------------------
Archival summary:
1\1\v1352\OPT\HF\6-31G\48i116(1+,1)\atg509\ThuAug3014:25:252012ThuAug3014:25:252012\0\\#,OPT,HF,6-31G,\\1,1\O\C,1,1.44659\H,2,1.08017,1,110.111\H,2,1.08254,1,109.302,3,-120.525,0\C,1,1.44659,2,122.811,3,78.4908,0\H,5,1.08017,1,110.111,2,-78.4908,0\H,5,1.08254,1,109.302,2,42.0342,0\C,2,1.52234,1,106.289,3,120.011,0\H,8,1.08017,2,110.755,1,173.19,0\H,8,1.08254,2,110.663,1,-64.9728,0\O,8,1.44659,2,106.289,1,53.5983,0\C,11,1.44659,8,122.811,2,-161.498,0\H,12,1.08017,11,110.111,8,-78.4908,0\H,12,1.08254,11,109.302,8,42.0342,0\C,12,1.52234,11,106.289,8,161.498,0\H,15,1.08017,12,110.755,11,-173.19,0\H,15,1.08254,12,110.663,11,64.9728,0\O,15,1.44659,12,106.289,11,-53.5983,0\C,18,1.44659,15,122.811,12,161.498,0\H,19,1.08017,18,110.111,15,78.4908,0\H,19,1.08254,18,109.302,15,-42.0342,0\C,19,1.52234,18,106.289,15,-161.498,0\H,22,1.08017,19,110.755,18,173.19,0\H,22,1.08254,19,110.663,18,-64.9728,0\O,22,1.44659,19,106.289,18,53.5983,0\C,25,1.44659,22,122.811,19,-161.498,0\H,26,1.08017,25,110.111,22,-78.4908,0\H,26,1.08254,25,109.302,22,42.0342,0\Li,25,1.84937,22,105.937,19,-39.9063,0\\HF=-618.783782\\@

 Total job time:  508.78s(wall), 499.12s(cpu) 
 Thu Aug 30 14:25:25 2012

        *************************************************************
        *                                                           *
        *  Thank you very much for using Q-Chem.  Have a nice day.  *
        *                                                           *
        *************************************************************




=============================================================================
                                     Resource usage:
                                       CPU time:              00:07:53
   JobId:     475604.vu-pbs            Elapsed time:          00:08:26
   Project:             x80            Requested time:        01:00:00
   Service Units:      0.14 
                                       Max physical memory:      149MB
                                       Max virtual memory:       352MB
                                       Requested memory:         599MB

                                       Max jobfs disk use:       0.0GB
                                       Requested jobfs:          0.6GB
=============================================================================

